250
energy=-943.3803 config_type=nep2xyz pbc="T T T" Lattice="0.0 16.42598 16.42598 16.42598 0.0 16.42598 16.42598 16.42598 0.0" Properties=species:S:1:pos:R:3:force:R:3
Te 3.492031 3.485646 3.414023 -0.5448968 -0.1641313 0.100888
Te 3.223024 6.470844 6.630546 -0.3463998 0.4972829 0.292709
Te 3.317854 9.824571 9.998867 -0.3246144 0.07877297 -0.1051811
Te 3.290679 13.29682 13.17877 0.1177385 -0.4414477 -0.1264316
Te 3.473361 16.59984 16.36675 -0.4153113 -0.3209267 0.231186
Te 6.612069 3.28445 6.424963 -0.09604352 0.00935659 -0.06431831
Te 6.412821 6.740103 9.683633 0.289981 -0.05046214 0.08191357
Te 6.434023 9.704503 13.19851 0.2582419 0.4460749 0.03987774
Te 6.732582 13.39127 16.28367 -0.7629145 -0.9496695 0.1336513
Te 6.488739 16.49839 19.80089 0.409861 -0.08201973 -0.2169942
Te 10.03803 3.330431 9.867261 -0.4404402 -0.402896 -0.09616867
Te 10.10688 6.630277 13.1763 -0.5437996 -0.1661271 -0.08631198
Te 9.703991 9.86744 16.38445 0.1057483 -0.02148109 0.2305055
Te 9.969421 13.28731 19.42301 -0.1123313 -0.448659 0.4006559
Te 9.788732 16.38503 22.82186 0.1231411 0.2679718 -0.08133096
Te 12.70087 3.267932 12.99723 1.081498 0.283698 0.2679635
Te 13.37813 6.71485 16.40339 -0.516369 -0.00658466 0.179693
Te 13.33337 9.945748 19.58706 -0.1529284 -0.4795192 0.1032719
Te 13.32438 12.95349 23.26495 -0.06502159 0.378785 -0.5492747
Te 13.33523 16.46886 26.13823 -0.4333144 -0.5726005 0.2632292
Te 16.31944 2.993213 16.62075 -0.05959483 0.7401448 -0.329267
Te 16.55494 6.520232 19.69074 -0.5724462 -0.0396883 0.7770264
Te 16.45123 9.862079 22.96425 -0.00319881 -0.2776878 0.01134479
Te 16.53057 13.0854 26.34662 -0.05370389 -0.1189846 -0.1719687
Te 16.47641 16.4466 29.65419 -0.1271711 -0.2268747 0.00561232
Te 6.503928 6.56622 3.224487 0.3660012 0.32219 0.1295719
Te 6.712173 9.712223 6.479328 -0.577952 0.2470568 0.3098041
Te 6.654848 13.34213 9.852007 -0.4246936 -0.7228807 -0.159402
Te 6.594776 16.48145 13.11194 -0.04911103 -0.743721 -0.07860453
Te 6.204656 19.76465 16.48635 0.8025255 0.04955549 -0.1689183
Te 9.555866 6.670162 6.644828 0.41163 -0.5715553 -0.1691182
Te 9.560993 9.68729 9.915346 0.4232053 0.3478117 -0.2341186
Te 9.915442 13.10562 13.13216 -0.2668077 0.00383862 -0.1949255
Te 10.16733 16.35734 16.50993 -0.2816572 -0.3253337 -0.495695
Te 9.930004 19.55147 19.72196 -0.08836887 0.7858188 -0.05723862
Te 13.1534 6.579879 9.933097 -0.1947324 -0.08165124 -0.312041
Te 12.96567 9.81354 12.97845 0.3912343 0.3152704 0.2497986
Te 13.28372 13.20737 16.37682 -0.2166833 -0.08839755 -0.06244127
Te 12.88767 16.48908 19.48391 0.6533046 -0.04593458 0.3680143
Te 13.10201 19.72451 22.88107 0.1571173 -0.04055268 0.0085708
Te 16.49849 6.479004 13.31998 0.1081168 0.01306063 -0.201965
Te 16.3039 9.572236 16.58231 0.05665412 0.5372578 -0.4693355
Te 16.66436 13.12121 19.6942 -0.6042369 0.01195206 0.03913833
Te 16.47651 16.1393 22.87739 -0.1514299 0.6683687 0.1125954
Te 16.50352 19.52567 26.20473 0.0918338 0.1691397 0.3365621
Te 19.85034 6.629763 16.6622 -0.06661954 0.09388783 -0.4529519
Te 19.80778 9.799941 19.94055 0.1568316 0.3722697 -0.2734822
Te 19.88473 13.03405 22.8552 0.3152044 -0.04173448 0.3215386
Te 19.73636 16.52123 26.3622 0.01855768 -0.2289461 0.4167592
Te 19.5789 19.61618 29.65997 0.07619441 -0.1985455 -0.1894707
Te 9.805206 9.895416 3.050426 0.0668474 0.3532716 0.2342449
Te 9.867722 13.07546 6.676451 -0.08870788 -0.03631593 -0.3174435
Te 9.715108 16.39526 10.07551 0.3729869 0.209817 -0.4947502
Te 9.852136 19.49591 13.19324 0.04247092 0.7237279 0.3389585
Te 9.833669 22.97532 16.30853 0.6123272 0.00356465 -0.589537
Te 12.95018 9.883329 6.516977 0.4946004 0.07036389 0.00377643
Te 13.07177 12.98066 10.04211 0.07377187 0.5172892 -0.4671051
Te 13.21939 16.57434 13.17453 -0.1104672 -0.3973098 -0.3903959
Te 12.87616 19.55487 16.6044 0.6542948 0.573296 -0.6380371
Te 13.19561 23.30735 19.73017 -0.4326979 -0.1195209 -0.02061119
Te 16.11004 9.796528 9.606341 0.01034788 -0.06128673 0.7958562
Te 16.52967 13.04464 13.07971 -0.2744669 0.01635431 0.06187483
Te 16.69743 16.38352 16.40823 -0.3607365 0.2072001 0.06145359
Te 16.50263 19.65349 19.7724 0.07347496 0.05712594 -0.4335116
Te 16.20848 22.78926 23.1601 0.363634 -0.01299872 -0.09654501
Te 19.61775 9.772491 13.03375 -0.0071649 0.1642544 0.373453
Te 19.6969 13.25619 16.38512 0.139172 -0.1518545 0.07740826
Te 19.38527 16.49527 19.83548 0.5547773 -0.05252633 -0.1936935
Te 19.49442 19.53008 22.81137 0.7888276 0.3397929 0.4364182
Te 19.6642 22.95025 26.14254 -0.2051101 -0.06362749 0.2454307
Te 22.89677 10.04249 16.40878 0.3178285 -0.4660811 -0.1063184
Te 22.87753 13.07906 19.49221 0.5342578 0.1334075 0.4353498
Te 22.7375 16.30489 22.87094 0.5564585 0.1356166 1.171429
Te 23.20037 19.75688 26.04521 -0.5502373 0.01264789 0.2562563
Te 22.9839 23.14521 29.36074 0.01082927 -0.6393145 0.2208129
Te 13.15999 13.34807 3.316612 -0.01713756 -1.413632 0.3943837
Te 13.15453 16.46451 6.699333 -0.354557 0.01482845 0.0341462
Te 13.21819 19.85657 9.921052 0.08753172 -0.2726983 -0.00360586
Te 13.14766 23.15582 13.423 -0.1262222 -0.1770945 -0.4862443
Te 13.29236 26.54861 16.35817 -0.4192496 -0.4812115 0.1713843
Te 16.58126 13.29561 6.531348 -0.2523465 -0.3325154 0.1741564
Te 16.42228 16.2798 10.02752 -0.08331702 0.4580403 -0.5660383
Te 16.68259 19.65306 13.01576 -0.4227699 0.1513657 0.2332094
Te 16.51633 23.39483 16.63028 -0.03358433 -0.7510834 -0.3088878
Te 16.51617 26.37915 19.81219 -0.07811626 -0.2030565 -0.343125
Te 19.67938 12.91539 9.867556 0.1860582 0.393167 -0.07758412
Te 19.72956 16.60852 13.19417 -0.05976088 -0.5237144 -0.2533586
Te 19.74713 19.74266 16.34876 -0.2581 -0.07296584 0.2828173
Te 19.35863 23.15944 19.59105 0.7572002 -0.3236809 0.4188675
Te 19.53896 26.37857 23.05907 0.1528487 -0.2510834 -0.4037988
Te 22.9211 13.01015 12.90701 0.5105619 0.2030145 0.234437
Te 23.15082 16.46571 16.52237 -0.5419239 -0.07058716 -0.1848075
Te 23.36395 19.56562 19.56523 -0.8699529 0.05745243 0.02716629
Te 23.06776 23.09511 22.84859 -0.6098412 -0.6258075 -0.235383
Te 22.7877 26.43639 26.04816 0.1105386 -0.3392558 0.3131912
Te 26.2496 13.26834 16.59803 0.3455296 -0.3939396 -0.1797803
Te 26.34969 16.29937 19.83956 -0.3079755 0.2647569 -0.08295369
Te 26.36049 19.61476 23.35823 -0.1884231 -0.01903838 -0.7342234
Te 25.97047 23.03242 26.24154 0.8578818 -0.1543758 -0.05792055
Te 26.34589 26.2653 29.30398 -0.673317 -0.0111737 0.2826894
Te 16.42397 16.23284 3.466184 0.06713087 0.8228417 -0.04506438
Te 16.45611 19.61114 6.578474 -0.4616376 0.4564963 0.02147052
Te 16.30136 22.97572 9.948521 0.1059607 0.3501163 0.1784447
Te 16.33853 26.16419 13.06921 0.2381289 0.3047023 -0.01102319
Te 16.41732 29.57877 16.40664 0.4238625 0.5861822 0.01124719
Te 19.64006 16.4924 6.578297 -0.01275243 0.1213992 0.06855645
Te 19.95161 19.54237 9.842911 -0.3692287 0.2895264 -0.1082086
Te 19.74863 23.03403 13.29096 0.552906 0.1624312 -0.4563552
Te 19.60798 26.3352 16.41708 0.8934007 -0.00816107 0.1707155
Te 19.91029 30.00301 19.74823 -0.06433933 -0.7834449 -0.2678581
Te 22.97189 16.56625 9.829908 -0.4717551 -0.1550696 -0.1655395
Te 23.08791 19.37885 12.7258 -0.4001999 0.6593485 0.4533797
Te 22.99679 22.91075 16.1074 0.01802463 0.3652359 0.5244661
Te 23.25421 26.04082 19.63478 -0.2665025 -0.05899852 -0.2239365
Te 23.1807 29.45622 22.86823 -0.3002798 0.3057867 -0.2628817
Te 26.13113 16.59352 13.22143 0.4289127 -0.3786801 -0.01714032
Te 26.17762 19.78114 16.66954 0.1475118 -0.07735045 -0.3129853
Te 26.14647 22.8461 19.4886 0.1286063 0.3375249 0.9449555
Te 26.18142 26.17815 22.85109 0.3587325 0.5236223 -0.02902643
Te 26.37999 29.83609 26.07378 -0.1093491 -0.4489758 0.3261077
Te 29.54021 16.70007 16.56508 0.2493541 -0.3116945 -0.1872949
Te 29.77375 19.83416 19.54715 -0.1540929 0.08430945 0.7784831
Te 29.43399 23.07642 23.08661 0.2947021 -0.300642 -0.1020868
Te 29.60187 26.2512 26.18742 -0.00972363 -0.4231387 0.07251884
Te 29.59656 29.78425 29.85189 -0.458677 -0.2741065 -0.4002156
Pb 16.4969 16.41693 0.3628859 -0.1740717 -0.2553391 -0.2850741
Pb 16.67834 19.56591 3.426768 -0.3397785 0.22263 -0.1751963
Pb 16.46148 22.98107 6.855534 -0.3456698 0.1224145 -0.4963461
Pb 0.1541307 9.795054 9.745369 -0.2888779 0.1494484 0.3610134
Pb 32.60956 29.60879 29.43735 0.4241214 -0.1631416 0.4587947
Pb 3.482795 0.2431837 3.28372 -0.4931876 -0.09875654 -0.02250002
Pb 19.46051 19.85259 6.59605 0.6516663 -0.5504647 0.2501292
Pb 19.80452 22.78035 9.89955 -0.1499765 0.02148563 0.2641614
Pb 3.26416 10.10561 13.24661 -0.3917734 -0.2956481 -0.1134323
Pb 19.69831 29.53963 16.42494 -0.03823291 0.2787063 0.08131819
Pb 22.77765 16.55317 6.479295 0.2585911 -0.2600107 0.3474335
Pb 6.708693 3.459443 9.525536 -0.00495377 -0.186445 0.3860401
Pb 6.80989 6.647428 12.9718 -0.0026405 -0.4447979 -0.04603258
Pb 6.528676 9.840487 16.36001 -0.06540173 -0.2246364 0.2293914
Pb 23.08488 29.0514 19.50514 -0.04934693 0.6178048 0.3219156
Pb 9.48945 0.09760762 9.410247 0.6588007 -0.05977862 0.5020708
Pb 26.08192 19.84606 13.20908 0.1120374 -0.2164703 0.2120264
Pb 26.28788 22.91476 16.51514 0.1300427 0.05196929 -0.6711023
Pb 10.12147 10.11351 19.62011 -0.09567812 -0.2053524 -0.00663407
Pb 9.843115 13.31567 22.59255 0.3307581 -0.1894943 0.3806956
Pb 13.08434 0.1961415 13.14837 -0.1869656 -0.166436 0.1127743
Pb 29.31554 19.96648 16.59303 0.2040183 -0.1909509 -0.585009
Pb 13.0375 6.734568 19.7114 0.239272 -0.3431284 -0.03070653
Pb 29.56397 26.18942 22.99209 -0.02456049 0.4005716 -0.09850779
Pb 29.54034 29.22028 26.29514 -0.05894459 0.7674484 0.00443188
Pb 3.12218 3.389426 0.3489058 -0.1128533 0.07242913 -0.4724627
Pb 19.62731 6.664948 19.84434 0.2307788 0.02188792 -0.3329623
Pb 3.18807 9.752947 6.831441 0.2165739 0.1296422 -0.2179093
Pb 19.69128 13.19429 26.227 0.1814261 -0.1027591 0.172016
Pb 3.292403 16.35596 13.21114 -0.08995946 0.2497651 0.03078219
Pb 6.552692 3.388328 3.245891 0.7194438 -0.2038864 0.02371294
Pb 6.321947 6.466603 6.420825 0.5485045 0.05144081 0.06332212
Pb 6.416717 9.989671 10.16884 0.4090638 -0.00841397 -0.5251461
Pb 6.757315 13.2932 13.05619 -0.3009286 -0.1822401 -0.01915047
Pb 6.550055 16.33129 16.70232 0.2380016 0.7573575 -0.2073447
Pb 9.986928 3.464685 6.586803 -0.1019736 -0.1179212 -0.184946
Pb 9.811377 6.360312 9.854928 0.1823022 0.6282558 -0.02683542
Pb 9.887378 9.702271 13.22906 -0.280785 0.2620656 -0.4268923
Pb 9.705405 13.10152 16.2971 0.7145738 0.03029254 -0.1919224
Pb 9.805882 16.56758 19.5712 -0.1180102 -0.1437829 0.2477624
Pb 13.15287 19.46347 26.2717 0.2211222 0.5679746 -0.1200228
Pb 13.35309 6.655506 13.14097 -0.1355002 -0.3331043 0.02044411
Pb 12.91919 9.9128 16.20717 0.3419492 -0.05781779 0.1863524
Pb 13.18286 12.93034 19.44634 0.09561222 0.7757712 0.3020681
Pb 13.33331 16.34697 22.93333 -0.3808954 -0.07344392 -0.1049708
Pb 16.29857 3.156927 13.33931 -0.08703842 0.1679867 0.00035678
Pb 16.66622 6.438546 16.73539 -0.04219603 -0.1685078 -0.5386906
Pb 16.77946 10.09177 19.70994 -0.4863573 -0.5289459 0.09364745
Pb 16.91932 13.16916 23.20661 -1.05637 -0.4049208 -0.2944242
Pb 16.36331 16.32148 26.4654 0.08519889 0.1192073 -0.125878
Pb 6.855811 23.03746 16.60968 -0.8761575 -0.01449529 -0.4035565
Pb 6.553277 9.942686 3.412327 -0.01855549 -0.3904527 -0.2949915
Pb 6.569983 12.8383 6.334519 0.08865716 0.1007778 0.1952713
Pb 22.90866 16.34486 26.11964 0.01407056 0.6959475 0.2333024
Pb 6.494088 19.37486 13.42825 -0.00523146 1.046007 -0.2007234
Pb 10.06706 23.35643 19.18508 -0.3388328 -0.7173067 1.133184
Pb 9.840431 9.669253 6.528392 -0.07920983 0.2315318 0.2791047
Pb 9.750213 13.28706 9.68706 0.356567 -0.4765625 0.6785501
Pb 9.802737 16.45327 13.15688 0.1545355 -0.4650266 0.3278621
Pb 9.816495 19.32589 16.51616 -0.4098128 0.4951767 0.08320538
Pb 13.05095 6.662847 6.553317 -0.2621427 -0.2328772 0.3194957
Pb 12.89764 9.813745 9.761139 -0.2256048 -0.1693579 0.01846735
Pb 12.97523 13.25237 13.13624 0.5053195 -0.0891686 0.06424281
Pb 13.55644 16.53144 16.23193 -0.296494 -0.4226382 0.5516778
Pb 13.37102 20.10511 19.54578 -0.3147036 -0.529386 0.7934134
Pb 16.32609 6.247968 10.15567 0.05939178 0.2592237 -0.1428593
Pb 16.3075 9.790904 13.29508 0.2789947 0.05431713 -0.06074099
Pb 16.44578 12.88121 16.24986 0.1293119 0.1063485 0.06576099
Pb 16.01112 16.13369 19.57512 0.2117787 0.5013984 0.0892893
Pb 16.46218 19.55163 23.0336 -0.4593554 -0.08486323 0.01173306
Pb 19.80615 22.61593 29.47109 0.00627844 0.7427153 0.1831198
Pb 19.73858 9.893578 16.4426 -0.1203437 -0.1495933 -0.1899286
Pb 19.73009 13.17577 19.56395 -0.04129902 0.1327243 -0.03755214
Pb 19.59652 16.4101 23.37858 -0.1358282 -0.00225886 -0.8311558
Pb 19.8357 19.75771 26.3098 0.01113264 -0.01609572 0.01180689
Pb 26.40942 26.26319 32.68193 0.04087854 0.2710425 -0.1841021
Pb 9.800095 13.18991 3.509013 0.105628 0.07197216 -0.5903226
Pb 26.02526 16.24788 22.88413 0.2017379 0.4469349 0.2820529
Pb 9.935551 19.6466 10.08861 0.05081174 0.1034458 -0.2524477
Pb 9.818766 22.84726 13.09906 0.04689629 0.1777367 -0.2175601
Pb 12.98667 10.08536 3.337677 0.4132015 0.1252435 -0.2368998
Pb 13.00523 13.27582 6.826839 0.4054536 -0.02459901 -0.1045719
Pb 13.02015 16.53872 9.932657 0.06187053 0.01721409 -0.09957636
Pb 13.2537 19.62874 13.41899 0.05164797 0.5000078 -0.4284253
Pb 13.47113 23.16787 16.47373 -0.2106867 0.2247128 0.03878682
Pb 16.32388 25.90389 23.01949 -0.00360716 0.4361642 -0.3993999
Pb 16.53874 13.20372 9.736456 -0.208599 -0.3984211 0.1429846
Pb 16.5452 16.47142 13.08708 -0.0641287 -0.1412405 0.3432392
Pb 16.44425 19.85274 16.48121 0.1956136 -0.1522152 0.01600378
Pb 16.2347 22.95809 19.90619 0.4710843 0.1306936 -0.02433932
Pb 19.13508 9.713524 9.758934 0.4245481 0.1193372 0.2894016
Pb 19.80545 13.15282 13.20013 -0.2982496 -0.2541459 -0.2629329
Pb 19.80647 16.48293 16.35633 0.2212959 -0.1846074 0.3818596
Pb 19.95156 19.68279 19.72852 -0.1672533 -0.1672646 -0.1215488
Pb 19.5514 23.20063 22.99081 0.1066728 -0.131518 -0.1537465
Pb 22.87376 9.731715 13.17088 -0.07098586 0.3246569 -0.00829983
Pb 23.17893 13.15952 16.30012 -0.2236391 0.1044802 -0.3043158
Pb 22.60269 16.20033 20.02603 -0.07666996 0.279947 -1.46654
Pb 22.95455 19.65979 22.91039 0.08642812 0.1476422 0.1844147
Pb 22.93756 23.13815 26.11804 -0.2666084 -0.2249744 0.1687222
Pb 13.31847 13.38285 0.1611124 -0.4402959 0.07435852 -0.2048492
Pb 13.0923 16.18361 3.412155 0.0692462 1.434012 -0.0544751
Pb 29.49749 19.98013 22.80167 -0.04888924 -0.225649 0.3086128
Pb 13.10871 23.09996 10.29983 -0.1671195 -0.2637925 -0.2590641
Pb 29.33369 26.42838 29.51572 0.6637214 0.00304931 0.170701
Pb 16.66111 29.63672 19.84765 0.01563033 -0.5687033 -0.156155
Pb 16.28509 16.43586 6.688028 0.08606991 -0.258858 0.1326737
Pb 16.63316 19.96932 9.742588 -0.2001822 -0.6830317 0.4369977
Pb 16.78841 22.95253 13.30836 -0.6809024 0.08946965 0.1121019
Pb 16.64198 26.60849 16.2814 -0.796357 -0.5419781 0.1389099
Pb 19.77664 13.36655 6.505173 -0.0221244 -0.2181115 0.1487312
Pb 19.61219 16.20897 9.853642 0.07862046 -0.02133132 0.00139608
Pb 19.97765 19.70623 13.18398 -0.1005661 0.2414262 -0.2145066
Pb 19.71219 22.83248 16.46499 0.1631367 0.2451985 -0.1205301
Pb 19.80669 26.20078 19.70415 -0.3306443 0.2472776 0.1733932
Pb 23.17979 29.53188 26.08334 -0.08474792 0.1844748 0.05536378
Pb 22.92826 16.26129 13.10987 0.2367745 -0.07222843 0.1643385
Pb 23.0406 19.59469 16.33437 0.04027734 -0.04890711 -0.09102364
Pb 22.84278 22.7773 19.51935 0.08148053 -0.02753593 0.1166012
Pb 23.03513 26.2127 22.9155 -0.310476 0.2656084 0.02076719
Pb 26.30599 29.64998 29.40069 -0.137943 0.18854 -0.05314715
Pb 26.23961 16.39982 16.46897 0.2495027 0.1177599 -0.2506653
Pb 26.40275 19.73546 20.10484 0.3681608 -0.1605435 -0.1116837
Pb 26.18701 23.16233 22.79654 0.1661648 -0.558795 0.1442238
Pb 25.93188 26.13598 26.07023 0.1853239 0.2875803 0.1491443
250
energy=-930.3116 config_type=nep2xyz pbc="T T T" Lattice="0.0 16.42598 16.42598 16.42598 0.0 16.42598 16.42598 16.42598 0.0" Properties=species:S:1:pos:R:3:force:R:3
Te 3.095566 3.335362 3.393937 -0.05524102 -0.2855694 0.3400459
Te 3.417567 6.54098 6.848131 1.075663 0.08609472 -1.295314
Te 3.292342 9.763207 9.886507 -0.3579002 0.3668336 -0.1411555
Te 3.31885 13.00915 12.81413 -0.1295603 0.3723359 1.090353
Te 3.398088 16.75227 16.20786 -0.08253049 -0.1589405 -0.00073758
Te 6.45652 3.239368 6.281089 0.797913 0.05062569 0.1439384
Te 6.842426 6.332861 9.818165 -0.9911762 0.387981 0.2902672
Te 6.351737 10.14669 12.97087 0.2905022 -0.7149902 0.1222067
Te 6.894896 13.07775 16.32145 -0.5632224 0.3263791 0.02701094
Te 6.399496 16.22097 19.81916 0.03774216 0.3418256 -0.7285483
Te 9.995008 3.424897 9.9929 -0.1876258 -0.6782748 -0.04695296
Te 9.642315 6.019477 13.41644 0.6455188 0.8611215 -0.0790339
Te 9.889658 9.395452 16.39688 0.1113744 0.4981295 0.146489
Te 9.521873 13.30996 19.50389 0.4722392 -0.1942703 0.1475094
Te 9.763071 16.87989 22.4467 0.1174058 -0.5065538 0.8227601
Te 13.12439 3.34821 13.2519 0.09264732 0.01035218 0.1218625
Te 13.31524 6.732992 16.68016 0.2031095 -1.597184 -0.1672115
Te 13.34629 10.21499 19.62243 -0.5244934 -0.8591792 0.3163286
Te 13.28721 13.40026 22.89348 -1.126364 -0.3575228 -0.202159
Te 13.3002 16.35817 26.35816 0.1687079 0.2661347 -0.127261
Te 16.5835 3.366357 16.58435 -0.2685276 -0.1298842 -0.2571964
Te 16.42829 6.60008 19.74417 -0.3723998 0.0503649 0.07642238
Te 16.97603 9.909259 22.95488 -0.826917 -0.00166193 0.3850829
Te 16.38302 13.21834 26.62205 -0.03927906 -0.529263 -0.43693
Te 16.55563 16.44852 29.53316 -0.4150127 -0.1583317 0.2577852
Te 6.056449 6.860261 3.581348 1.035853 -0.8423331 -0.6405372
Te 7.031628 9.713572 6.32932 -0.7358734 0.1943417 0.6385295
Te 6.4185 13.26423 9.958805 0.2615466 -0.4020824 -1.248353
Te 6.296223 16.48453 12.86713 0.9819375 0.294533 0.2831213
Te 6.558642 19.76607 16.31651 0.3816733 -0.07082005 -0.1391049
Te 10.20199 6.488548 6.662718 -0.713823 0.6974603 -0.1216396
Te 9.542555 9.836684 9.967719 0.5311875 -0.01163781 -0.1719898
Te 10.07792 12.91706 12.99999 -0.168665 -0.1193293 0.6736983
Te 9.852248 16.38672 16.15393 -0.09082013 -0.00520504 -0.03758658
Te 9.211044 19.51218 19.48476 1.153462 0.6919491 0.1822067
Te 13.25681 6.305292 10.00412 -0.4580223 0.2482055 -0.03344883
Te 12.89514 9.524077 13.40165 0.3466504 -0.08212636 -0.6129777
Te 13.2704 12.88003 16.38185 0.06661742 0.481067 -0.04245208
Te 13.06006 16.53587 19.31853 -0.3472606 0.1818191 1.251084
Te 13.12005 19.58067 22.63003 0.6104681 1.055672 0.4057365
Te 16.55463 6.48488 13.00764 -0.2860619 -0.05385014 0.2195573
Te 16.28159 9.486276 16.68035 0.4107549 0.362158 -0.5084673
Te 16.49595 13.14316 19.6931 0.04841974 0.1629303 0.4860378
Te 16.3391 16.23082 23.38354 0.1062522 0.4943538 -0.8011209
Te 16.38014 19.5704 26.2846 0.4234064 0.2026285 0.1041908
Te 19.79517 6.950511 16.75262 0.01927816 -0.5757833 -0.46922
Te 19.65951 9.886409 19.55086 0.3272024 0.2115839 0.1483773
Te 19.81339 13.01641 22.86588 -0.5128897 0.1534334 0.05240327
Te 20.10564 16.93679 26.03523 -0.7058265 -0.6019973 0.3057573
Te 19.74151 19.70835 29.42809 -0.05546045 -1.153131 0.2687117
Te 9.970256 10.04462 3.500268 -0.7903281 -0.5983615 -0.3121774
Te 10.23214 12.79309 6.827963 -0.8502591 0.3519761 -0.458516
Te 10.0339 16.3408 9.788737 -0.00438522 0.08166632 0.0587887
Te 9.675136 19.87546 12.96941 0.3443669 0.1203381 0.7865593
Te 9.86809 22.8044 16.71348 0.3079948 0.6336336 -0.8879402
Te 13.38919 9.79295 6.417642 -0.07658067 -0.5561217 0.3658758
Te 13.24076 13.13322 10.01462 -0.2408531 -0.5621842 -0.245993
Te 13.18671 16.11854 13.22142 -0.1639573 0.2529947 -0.4020133
Te 13.42144 19.68755 16.33948 -0.949636 -0.3273754 -0.3527272
Te 13.21553 23.44794 19.59728 -0.6254257 -0.7621248 0.8840283
Te 16.2375 9.590789 9.738525 0.1821827 0.241476 0.9567802
Te 16.66625 12.94188 13.24435 -0.5572979 -0.4724115 -0.1109434
Te 16.22201 15.93739 16.6287 0.4369742 0.4557685 -0.3187479
Te 16.32932 19.52209 19.91398 0.1082733 -0.04862105 -1.386236
Te 16.47758 23.09718 22.67269 0.07502474 -0.0820427 0.8407899
Te 19.57201 10.18641 13.04092 0.1881509 -0.9995186 -0.5843211
Te 19.54598 13.14054 16.29916 0.2330326 0.5756367 -0.3113308
Te 19.38156 16.43115 19.86084 0.3043736 -0.09894668 -0.3330956
Te 19.54955 20.01371 22.83559 0.1305184 -0.2200238 0.5183739
Te 19.30434 23.33505 26.67872 0.7647215 -0.01146697 -0.2945662
Te 23.12956 10.07162 16.24268 -2.470108 0.4356941 -0.1090565
Te 22.9656 13.25127 19.83213 0.3146698 -0.03938914 -0.02812693
Te 22.84968 16.53125 22.79327 0.2583414 -0.2282896 0.5333643
Te 23.0152 19.84196 26.10238 0.02788456 0.04718418 0.4436203
Te 22.91556 23.07751 29.57433 -0.4092565 0.00770805 0.01862894
Te 13.14065 13.49185 3.389533 -0.6866481 -0.2667436 -0.3381279
Te 13.19874 16.3284 6.696926 -0.3123345 -0.01339584 -0.3441465
Te 13.22593 19.68548 9.854747 -0.3222747 0.276032 0.06535586
Te 12.78581 23.45811 12.98372 0.4202987 -0.7153965 0.2319003
Te 13.03095 26.08864 16.29877 0.3048012 0.2332364 -0.1283741
Te 17.01369 13.40332 6.636641 -0.6525357 -0.7197127 -0.1557238
Te 16.73001 16.17531 9.593177 -0.6404394 0.3267801 0.5252357
Te 16.38677 19.09391 13.03819 -0.04056866 1.17187 0.1937646
Te 16.50077 23.12506 16.42102 0.1491375 -0.2089618 -0.01451359
Te 16.38037 26.19308 20.08106 -0.4338901 0.3143072 -0.6620866
Te 19.46309 13.34908 9.487973 0.6649706 -0.9366583 0.378176
Te 19.59909 16.39414 13.31336 0.5671443 -0.1197041 -0.126197
Te 19.68571 19.79671 16.72256 0.1698996 -0.1291666 -1.426538
Te 19.55654 22.92285 19.74562 0.3420267 0.1532215 -0.143511
Te 19.89183 26.43834 23.01379 -0.07367216 -0.04862332 0.2833749
Te 22.84207 13.03736 13.19939 0.3955951 0.4104515 -0.1421998
Te 22.95281 16.79637 16.46662 -0.0450391 -0.8559944 -0.2813381
Te 22.94925 19.61919 19.82363 -0.1128769 1.326461 0.2363479
Te 23.38772 23.11175 22.90045 -0.4198439 0.5499399 0.2387767
Te 23.07846 26.40507 26.0285 -0.6356575 -0.1852841 1.493404
Te 25.89604 12.8327 16.61651 0.5277432 0.5677807 -0.0236581
Te 25.99967 16.28234 19.99282 0.2593749 0.7415353 -0.5413412
Te 26.41716 19.50249 23.3152 -0.1684585 0.3010027 -0.8079783
Te 25.78908 23.01329 26.44442 0.1577492 0.2810106 -0.1568036
Te 26.50303 26.23884 29.42382 -0.6937912 0.4492152 0.01889457
Te 16.20299 16.49151 3.168959 0.1770003 0.4515207 -0.1004952
Te 16.62193 20.0686 6.546079 -0.2957792 -0.7933686 0.2023638
Te 16.45798 22.93889 10.09263 0.07628176 0.133446 -0.2345044
Te 16.38804 26.23827 13.45882 0.3914493 0.1083595 -0.3532331
Te 16.50159 29.90573 16.46917 0.1277287 -0.5990386 0.02698467
Te 19.75775 16.36742 6.540037 -0.1394893 0.3510713 -0.04033772
Te 19.59357 19.68195 9.857084 0.3653733 0.01573884 0.2191567
Te 19.72291 23.03687 13.35004 -0.03701115 -0.03954004 -0.3827037
Te 19.95501 26.38804 16.63164 -0.2955571 0.01413129 0.1284513
Te 19.49677 29.42445 19.32397 -0.1067021 0.6047237 0.1339857
Te 23.12017 16.39439 9.612956 0.2354041 -0.1290949 0.4608439
Te 23.08215 19.7868 13.10648 -0.5085334 -0.3473619 0.647046
Te 23.07151 22.88624 16.55975 0.2923251 0.7740824 -0.2097082
Te 23.00732 26.17072 19.8341 0.2609594 -0.0129442 -0.3286234
Te 23.14476 29.61645 22.66036 0.598502 0.07427602 0.4730023
Te 26.12652 16.4308 13.16346 0.7192585 -1.476824 -0.1237696
Te 26.43044 19.58833 16.76928 -0.3104667 -1.017667 -0.0015215
Te 26.44987 23.03832 20.10885 0.3090828 -0.1582357 -0.3210943
Te 26.09767 26.62252 22.79304 1.618282 -0.1820565 0.5520953
Te 26.27337 29.48587 26.21393 -0.4998468 0.2312917 -0.2672465
Te 29.59769 16.25536 16.3014 -0.3947889 0.4187829 0.4115954
Te 29.58461 19.8219 19.95047 -0.3082661 0.01909957 -0.8833293
Te 29.83537 22.9295 23.21278 -0.169403 0.2998988 -0.5186125
Te 29.68557 26.47937 25.95466 -0.2399433 -0.1795513 1.630902
Te 29.22027 29.97661 29.5954 0.7649314 -0.6494102 -0.09807471
Pb 16.26791 0.1846428 16.22473 0.2431074 -0.03703321 0.4494996
Pb 16.34837 19.79786 3.483139 0.05612016 0.08684627 -0.1908779
Pb 0.5482104 6.62311 6.764884 -1.519445 0.2373641 -0.1004677
Pb 16.40847 9.70751 26.0634 0.5662699 0.1071021 0.2642549
Pb 32.51493 29.78907 29.75166 0.02153109 -0.493319 0.2217837
Pb 3.160021 16.37839 19.33001 -0.1021433 -0.09472728 0.2025245
Pb 3.491259 3.288311 6.604984 -0.6494738 -0.3396982 0.2976942
Pb 3.404554 6.505968 9.685271 -0.02852269 -0.01992774 1.594264
Pb 19.56998 26.4455 13.64224 0.2730188 -0.6881162 -0.5719848
Pb 3.468503 13.65369 15.96082 -0.1923717 -0.341103 0.4484605
Pb 6.384731 0.1468133 6.481034 0.164302 -0.03298829 0.328759
Pb 22.89091 19.58872 10.14958 0.1619973 -0.09551612 -0.6845736
Pb 23.08528 22.97405 13.43059 -0.02707905 0.1850459 -0.2993155
Pb 6.887218 9.994294 16.52209 -0.4824816 -0.1608973 0.0179385
Pb 22.50916 29.35792 19.47866 0.5251996 -0.06092737 -0.3971832
Pb 10.33893 16.59577 25.82078 -0.982481 0.3216378 0.1012613
Pb 26.12438 19.24537 13.48508 0.442418 1.609012 -0.3724854
Pb 26.76258 22.50493 16.64095 -0.5445022 1.220283 -0.2329406
Pb 9.865468 10.18216 19.74615 -0.2015554 -0.3987521 -0.372938
Pb 9.660208 13.75025 22.62714 0.7186003 -0.3076632 0.09873723
Pb 13.04063 0.2451051 13.23417 0.1513052 -0.08794041 -0.1038141
Pb 29.50695 19.79096 16.76356 0.7692873 -0.252226 -0.3417301
Pb 29.67759 22.91711 19.98369 0.1019613 0.4421874 0.1119592
Pb 29.65795 26.23832 23.18033 -0.08397008 -0.13725 -1.758842
Pb 12.84806 13.21131 25.97266 0.4441443 0.00839284 0.2334207
Pb 3.44427 3.614878 0.4733308 -0.3088316 0.1345383 -0.9282651
Pb 19.47788 6.587033 19.77499 -0.2096476 0.2083698 -0.0985829
Pb 3.589021 9.921071 6.358342 0.2290446 -0.09896266 0.1754592
Pb 19.64849 13.23319 26.35673 -0.1649649 -0.3039544 -1.157259
Pb 19.76986 16.14652 29.06631 -0.2018723 0.3347549 0.2024748
Pb 6.250478 3.21808 3.065243 -0.3092567 -0.08926241 0.3237239
Pb 6.5777 6.276033 6.66069 0.3935428 0.37396 0.04298392
Pb 6.350735 9.623986 9.614733 0.2312293 -0.0064416 0.3392346
Pb 6.713113 13.21442 12.82478 0.3617215 -0.09484792 1.254911
Pb 6.691865 16.43707 16.67697 -0.1463705 0.1000566 -0.3427119
Pb 10.19855 20.02453 22.49753 -0.8177167 -0.5121978 0.2832917
Pb 9.780072 6.632984 9.76803 0.5946974 -0.2031516 0.2509108
Pb 9.731314 9.454136 13.08496 -0.440306 0.2242261 0.1861824
Pb 10.10878 12.84596 16.24661 -0.1537067 0.02276482 -0.3382015
Pb 9.830443 16.45725 19.28861 -0.05369667 -0.1780897 -0.1144503
Pb 13.26705 3.249555 10.07896 -0.2859875 -0.5456297 0.06203679
Pb 13.44951 6.471472 13.13721 -0.1616671 -0.3718286 0.4556682
Pb 13.05392 9.596709 16.50052 -0.08700643 1.1398 0.4619827
Pb 12.90175 13.14546 19.46701 0.01337506 0.2560408 0.1895887
Pb 12.88712 16.70436 23.08482 0.3031663 -0.9574656 -0.1174664
Pb 16.5669 19.47915 29.62034 -0.3340864 0.591199 -0.04605307
Pb 16.57839 6.501497 16.39977 0.2479351 -0.4801847 0.0991893
Pb 16.44298 10.20318 19.91869 0.07356772 -0.8143688 -0.01021592
Pb 16.10993 13.20608 23.45762 0.9621006 -0.148055 -0.08133379
Pb 16.65263 16.27698 26.40021 0.07250349 0.4279732 -0.2943749
Pb 23.25933 7.047318 16.42854 -0.9141923 -0.838876 -0.100623
Pb 6.512447 9.824234 3.364879 -0.05777712 0.6233207 -0.3534636
Pb 22.72535 13.24419 23.14888 0.5755678 0.07689752 -0.2033149
Pb 6.734058 16.28885 9.648758 0.05861084 0.3784596 0.09094111
Pb 22.93461 19.77989 29.53723 -0.04751018 -0.1122926 0.03922885
Pb 9.176718 6.545458 3.090729 0.2334228 0.1118494 1.063215
Pb 10.05199 9.698707 6.684494 0.289436 -0.1758454 -0.02790631
Pb 10.07931 13.03429 9.960879 -0.1953273 -0.01224078 0.1349234
Pb 9.673141 16.87087 12.75965 0.2310145 -0.8135256 0.5845209
Pb 10.03229 19.82355 16.52578 -0.2472502 -0.6904371 -0.4048868
Pb 13.25531 6.517664 6.869926 0.4393857 0.142065 -0.57585
Pb 13.20677 9.300362 10.24061 -0.3017452 0.8116419 -0.3800816
Pb 13.48528 12.48404 13.15934 -0.360378 1.07941 -0.04553963
Pb 13.02892 16.27644 16.35439 0.124713 -0.1764185 -0.8744746
Pb 13.30679 19.6774 19.45576 -0.4132012 0.08013194 0.1229029
Pb 16.35118 22.80923 26.10005 0.09639761 -0.2827644 -0.2877635
Pb 16.42741 9.637979 13.25635 -0.03485699 0.08674068 -0.06225879
Pb 16.56357 12.48585 16.74245 -0.6697376 0.8163694 -0.4766425
Pb 16.08051 16.12128 19.74755 0.3638833 0.4170024 0.1774359
Pb 16.36599 19.96365 22.72763 0.2172675 0.144798 1.558685
Pb 19.72024 22.52655 29.69298 0.1280951 1.410233 0.3399982
Pb 19.65582 10.12677 15.9502 0.08520513 -0.6660298 1.010086
Pb 20.05778 13.22806 19.3292 -1.085142 -0.1723808 0.7885455
Pb 19.61005 16.14572 23.04344 -0.1318076 0.2858844 -0.2304113
Pb 19.86499 20.05793 26.36296 -0.4953254 -0.1531823 -0.5003898
Pb 25.81664 9.664161 16.26351 2.640049 0.2573218 0.03303925
Pb 26.03651 13.22864 19.98353 0.4207465 -0.5329529 -0.3678811
Pb 9.843208 15.87787 6.738627 0.09300405 0.5719907 -0.1774073
Pb 26.42996 20.01385 26.36234 0.04344427 -0.3271674 -0.3610254
Pb 26.02536 23.14556 29.49524 0.5068188 -0.05897757 0.1127117
Pb 12.90423 10.07071 3.251538 0.6464395 0.1900691 -0.3122967
Pb 13.14036 12.78539 6.427869 0.7519715 0.651872 0.3216912
Pb 13.26586 16.16843 9.999964 0.2351715 0.4527605 0.1445195
Pb 13.00429 20.01999 12.92286 0.3353369 -0.1309067 0.08409365
Pb 13.44868 22.79251 16.76706 -0.3649087 0.5397769 -1.000691
Pb 16.66364 10.04975 6.763476 -0.01060709 0.09812198 -0.4457542
Pb 16.26393 12.86146 9.946104 0.245225 0.1725276 -0.06820224
Pb 16.51699 15.99077 13.2632 -0.6633312 0.2790655 -0.05544635
Pb 16.32882 19.79959 16.75541 0.8875542 -0.1128739 -0.424397
Pb 16.24514 23.12671 19.55811 0.5073313 -0.01413899 0.2624212
Pb 20.10773 26.43052 26.33392 -1.024685 0.05527709 -0.3495084
Pb 19.75311 13.14218 12.89952 0.1335339 0.59633 -0.3067015
Pb 19.37565 16.50735 16.48316 -0.04737068 0.1006218 0.149769
Pb 19.53601 19.62149 19.59428 0.0491775 0.2189032 1.015477
Pb 20.0905 23.21937 22.69945 -0.3863136 -0.1231892 0.04786521
Pb 23.16344 26.41612 29.2651 0.1793892 -0.1170663 0.420309
Pb 22.62437 13.49988 16.65676 0.759926 0.1059675 -0.4024434
Pb 22.67354 16.77711 19.74157 -0.1172091 -1.508161 -0.06899329
Pb 22.62201 20.25881 23.09333 0.1824985 -1.004718 -0.1478771
Pb 22.36768 22.91808 26.15977 0.7143435 0.08190561 0.1069198
Pb 29.25288 29.13383 32.64299 -0.101239 0.3328103 0.350594
Pb 29.32036 16.66354 19.49398 0.05580891 -0.4652869 0.2681845
Pb 13.12161 19.4795 6.455328 -0.00672249 0.00841375 1.096311
Pb 29.71614 23.21834 26.31187 -0.02812944 -0.3763102 0.3393903
Pb 29.91757 26.49337 29.32108 -0.5741335 -0.05128487 0.3792716
Pb 16.12188 13.51767 3.509612 0.5585883 -0.6063725 -0.120408
Pb 16.31583 16.32598 6.448683 0.1139419 0.4184499 0.1700832