  1.5689330e-01   7.6386683e-02
  8.5835475e-01   5.2967537e-02
  1.1569363e+00   9.7168669e-02
 -6.1801803e-01   5.3998400e-02
  1.3162830e+00   9.9685840e-02
 -8.9165074e-01   8.5636579e-02
 -4.1606638e-01   7.8877114e-02
  9.6289498e-01   9.9662669e-02
  1.6343682e-01   8.8053599e-02
 -9.4650397e-03   5.4436516e-02
 -1.4059545e+00   7.6097183e-02
  1.9271259e+00   9.5350415e-02
  8.8985974e-01   7.9441860e-02
 -8.7689412e-01   9.4371013e-02
  1.1289074e+00   8.6037941e-02
  1.0212692e+00   8.1019379e-02
  1.8016396e+00   9.9806719e-02
  1.4320492e+00   9.7197555e-02
 -2.6005089e-01   5.9287608e-02
 -5.0590426e-01   9.7062491e-02
 -5.5376190e-01   8.3367005e-02
  1.0067291e+00   7.6517776e-02
 -3.3047628e-01   6.9006220e-02
 -6.6511929e-02   8.4004767e-02
  2.1795246e-01   9.2593506e-02
  2.8784254e-01   5.8968149e-02
 -3.4299034e-01   8.1921741e-02
 -1.5911922e-01   7.1053170e-02
 -5.1104128e-01   8.1401847e-02
  4.5955968e-01   7.8676343e-02
 -8.3865553e-01   9.4718270e-02
 -1.2792462e-01   8.4963366e-02
  6.8311763e-01   8.4342077e-02
 -2.6731744e-01   9.3384072e-02
 -1.0976921e+00   7.8576587e-02
 -4.1574553e-01   5.0168220e-02
  3.0522415e-01   7.7460840e-02
  3.9783055e-01   7.3849067e-02
 -3.4481934e-01   9.3325660e-02
  8.4657609e-01   9.0697311e-02
 -2.0089431e+00   6.8854958e-02
  1.2720900e+00   8.0732107e-02
  1.0252721e+00   1.0000000e-01
  6.1698490e-01   6.8922468e-02
  7.3221341e-02   7.9867654e-02
 -4.7486329e-01   6.6975527e-02
  2.9627809e-01   8.9713611e-02
  6.2520313e-01   9.1327593e-02
 -4.2356440e-01   7.7671289e-02
 -1.3151506e-01   7.6640733e-02
 -1.7037781e+00   9.8317847e-02
  5.7967402e-02   6.1248880e-02
  3.2828382e-01   7.5413071e-02
  8.1743330e-01   8.3432391e-02
 -4.8689172e-01   7.3576301e-02
  5.0674808e-01   7.7148728e-02
  6.5680796e-01   8.9319088e-02
  1.2163261e+00   5.5573322e-02
  5.1913643e-01   9.5793769e-02
 -1.5840746e+00   6.6657923e-02
  9.1951925e-01   7.6813005e-02
 -1.2414590e+00   6.4912505e-02
  7.4031061e-01   8.2686961e-02
  1.0521235e+00   7.3701225e-02
  1.2508384e+00   7.6598674e-02
  1.4155604e-01   9.5081791e-02
  5.4631269e-01   8.4626637e-02
  5.5743670e-01   6.6806741e-02
  1.5153824e+00   6.6520520e-02
 -1.5536162e+00   7.8307919e-02
 -9.1449387e-02   6.6876277e-02
 -3.6814025e-01   9.7746223e-02
  1.5568038e+00   6.7890324e-02
 -5.2300596e-01   8.0919951e-02
  4.2122579e-01   8.0847256e-02
  1.0736974e+00   6.7724727e-02
  1.1257815e+00   8.1096366e-02
  1.3281354e+00   8.5473455e-02
  1.1176099e+00   6.0632613e-02
 -4.6128139e-01   7.2285622e-02
  1.3263198e+00   9.6408308e-02
  1.1503197e+00   6.9898345e-02
  7.5473741e-02   8.5128248e-02
  1.4010265e+00   9.3041554e-02
 -1.3915844e+00   7.3965974e-02
 -8.6187907e-02   8.7925434e-02
  8.8706452e-01   9.3165129e-02
 -1.7355832e-01   7.4675746e-02
  2.8982776e-01   7.6892085e-02
 -1.7853837e-01   6.9449440e-02
 -4.7796381e-01   8.4019236e-02
  1.4225533e+00   7.5753406e-02
 -2.8179312e-01   8.6105190e-02
 -1.7929347e-02   9.4519533e-02
  6.7373025e-01   5.5484269e-02
  4.9035829e-01   8.5819162e-02
  1.5259633e+00   6.0402941e-02
  3.0708033e-01   6.7257725e-02
  8.1222230e-01   8.9184441e-02
  2.7779168e-01   8.2516164e-02
 -4.4898945e-01   7.5438619e-02
 -4.4660920e-01   8.8242382e-02
  1.1709919e-01   7.8097142e-02
  5.4138672e-01   7.6230370e-02
  1.6563956e-01   4.3680213e-02
  3.5153627e-02   9.6528649e-02
 -2.0906718e-01   8.4225163e-02
 -9.1576874e-01   9.6210875e-02
  1.4490267e+00   7.9790093e-02
 -4.5516768e-01   8.4036298e-02
  1.1894301e-01   8.6828589e-02
 -1.1180611e+00   7.7498615e-02
 -2.3387088e-01   5.2972499e-02
 -7.4636348e-02   7.3100619e-02
  1.1376302e+00   9.5779806e-02
 -1.6379212e-01   8.0421381e-02
  7.6837294e-02   6.6885561e-02
 -2.4795546e-01   7.8336313e-02
 -9.9076435e-02   7.9931483e-02
 -5.3046986e-02   8.9722104e-02
 -7.4045587e-01   7.2723173e-02
  4.0896680e-02   9.7201705e-02
 -9.1996324e-01   7.5144768e-02
 -5.2220803e-01   9.4516553e-02
 -4.1549790e-01   5.5849645e-02
  9.4174600e-01   7.4358873e-02
 -6.8514776e-01   7.8240350e-02
 -9.1669238e-01   7.4457526e-02
 -5.6275654e-01   8.8159546e-02
 -8.5755929e-02   5.7973769e-02
  1.9102296e-01   7.9971462e-02
 -3.2116795e-01   7.6049693e-02
  4.5910656e-01   7.1838997e-02
  5.0078806e-02   8.8520803e-02
 -2.6580083e-01   6.7530863e-02
  9.0278834e-01   8.5048877e-02
 -9.9768013e-01   8.6361945e-02
  7.7163592e-02   9.5607676e-02
  2.2843499e-01   9.5883854e-02
 -1.2003877e+00   5.5980474e-02
  7.6651014e-02   5.0560750e-02
 -4.5894545e-01   5.9194118e-02
 -5.7070136e-01   7.2546355e-02
  1.0715448e+00   7.6656058e-02
 -2.3532021e-01   9.6212186e-02
  1.4149778e+00   8.2049429e-02
  3.3831134e-01   1.0000000e-01
 -5.3354907e-01   7.6964334e-02
 -5.7122540e-01   8.8591151e-02
  5.1662618e-01   9.0489559e-02
 -4.8583284e-01   8.2972385e-02
 -1.2820351e+00   7.6216273e-02
  2.1643312e-01   7.1717240e-02
  6.6334888e-02   3.6562581e-02
  1.2836188e+00   8.8973872e-02
  2.6986304e-01   7.3316067e-02
 -9.5753437e-01   8.7104142e-02
  1.9397517e-01   7.5856037e-02
 -4.9080744e-02   9.7470678e-02
 -6.9981754e-01   8.4218428e-02
  1.3240014e+00   9.8517962e-02
  7.3684776e-01   8.7197728e-02
 -4.9065772e-01   9.4763070e-02
  6.9663572e-01   9.3500271e-02
  2.3074515e-01   5.3047519e-02
  1.8959998e-01   8.4560536e-02
  1.6641657e+00   1.0000000e-01
  7.8194606e-01   8.2069725e-02
 -7.1977520e-01   6.0866721e-02
 -6.3347369e-01   8.4332012e-02
 -1.9436862e-01   8.1716873e-02
  1.4744890e+00   7.1061075e-02
 -9.8564535e-02   8.3366722e-02
 -4.8022795e-01   7.1890905e-02
  3.4778133e-01   9.0352148e-02
  3.8461274e-01   8.0913156e-02
  1.0642245e-01   7.6358736e-02
 -3.6276650e-01   6.2750392e-02
 -1.3043671e+00   9.2966065e-02
  6.9998540e-02   5.9890851e-02
 -2.0370881e-01   9.0395898e-02
  1.6011921e+00   8.2431495e-02
 -2.5422481e-01   8.1578158e-02
  5.8675212e-01   9.5614143e-02
  6.4459103e-01   4.5811500e-02
 -5.1269102e-01   9.1816336e-02
 -8.8091218e-01   9.7360976e-02
  7.4306436e-02   6.8282045e-02
 -1.5931886e-01   9.5729887e-02
 -1.0500411e-01   7.1172781e-02
 -5.6697607e-01   7.5442165e-02
 -3.5631984e-01   8.0382407e-02
  6.3731164e-01   8.1451558e-02
  1.3761795e+00   7.9618461e-02
  7.5391036e-01   9.8207474e-02
 -3.7533805e-01   6.6234045e-02
 -4.7401589e-01   9.9614002e-02
  7.2955877e-01   7.3406406e-02
 -1.1981128e+00   8.1015095e-02
 -7.3847465e-02   6.1922073e-02
  4.4855446e-01   8.2430162e-02
 -4.7659773e-01   6.2620223e-02
  9.5590395e-01   8.7248139e-02
 -5.7785887e-02   9.4487756e-02
 -1.0303026e-01   5.8612429e-02
  1.2235450e+00   8.4692545e-02
  2.6153439e-01   9.8061293e-02
  6.9651687e-01   6.5220147e-02
  2.0442410e+00   8.8040747e-02
 -2.4915303e-01   9.6556999e-02
 -1.3205828e-01   7.9403400e-02
  1.4970970e-01   7.0563778e-02
 -3.2817039e-01   9.4349049e-02
  1.6924711e+00   4.9081165e-02
 -9.7342186e-02   8.9845270e-02
 -2.4880326e+00   8.2177013e-02
 -3.1919959e-01   7.2610758e-02
 -4.5577607e-01   7.4085928e-02
 -1.3528857e+00   6.3893907e-02
  1.1228067e+00   6.8795033e-02
 -4.3563423e-01   7.0368275e-02
  2.8812465e-01   7.4800119e-02
  1.0942340e+00   6.1351724e-02
  1.6733633e-01   9.2584699e-02
  1.5124844e+00   7.9624176e-02
 -8.1680125e-01   6.9769673e-02
  2.9064438e-01   9.1304198e-02
  9.8019570e-02   7.7533394e-02
 -7.8068323e-02   8.9516543e-02
 -2.3276560e-01   9.7643584e-02
 -1.3041555e+00   9.6559018e-02
 -4.7233874e-01   9.5700026e-02
  1.9152062e-01   8.6534023e-02
 -1.9242276e-01   6.6657998e-02
 -1.0927818e+00   9.0023436e-02
  5.2964097e-01   6.8130091e-02
 -1.4243842e+00   9.3348086e-02
 -9.6353954e-01   6.4806901e-02
 -5.7317942e-01   5.7982896e-02
 -3.4755194e-03   5.8131021e-02
 -4.4526279e-01   8.8757828e-02
 -9.3772936e-01   7.2241761e-02
 -2.0224431e+00   7.5097501e-02
 -1.6292871e+00   9.4866537e-02
  8.7124777e-01   7.4308001e-02
 -7.1439767e-01   7.6990552e-02
 -7.4365228e-02   6.1304823e-02
  2.5225693e-01   1.0000000e-01
  1.0358256e+00   8.6984396e-02
  6.1092484e-01   7.3969379e-02
 -1.4236994e+00   8.9429632e-02
 -9.8048413e-01   8.4166855e-02
 -1.7414098e+00   8.4043577e-02
  1.6550200e+00   9.9061690e-02
  1.1482557e+00   9.9634029e-02
 -9.5113575e-02   8.2561314e-02
 -1.4239953e+00   1.0000000e-01
 -7.9358906e-02   6.5091640e-02
  5.2673602e-01   8.4877096e-02
 -3.4747452e-02   9.3463108e-02
  8.6455804e-01   8.5678101e-02
  4.1551837e-01   7.8026459e-02
 -9.7363704e-01   8.4917054e-02
 -8.0744535e-02   8.1953727e-02
 -9.4493449e-01   8.5365273e-02
  1.2092743e-01   9.5160618e-02
  6.5509838e-01   9.6125163e-02
  4.4602326e-01   6.6797346e-02
 -3.4398177e-01   6.5827735e-02
 -1.1526615e-01   8.7337844e-02
  1.0215851e+00   8.5731775e-02
  8.6174428e-01   8.8678807e-02
 -9.0580560e-02   6.0473125e-02
 -8.4185046e-01   8.5782513e-02
 -7.8103268e-01   9.6494131e-02
  5.3309166e-01   7.7513218e-02
 -1.0182590e+00   8.1320398e-02
  2.6649261e-01   8.8220462e-02
  1.6032869e-02   9.9327832e-02
 -1.4725298e-01   7.4898131e-02
  1.4726473e+00   6.2849641e-02
  3.0457094e-01   9.0413235e-02
 -7.8765100e-01   9.7502865e-02
 -4.7343358e-01   9.2393368e-02
  9.7039431e-01   9.3780950e-02
  1.3064263e+00   9.4003201e-02
 -9.3123478e-01   9.8933563e-02
  9.7175467e-01   9.0767182e-02
 -2.4824929e-03   6.6783324e-02
 -6.5851349e-01   9.5787324e-02
  3.1089172e-01   5.4957028e-02
  3.5878550e-02   6.9272108e-02
  4.6405768e-01   8.0099195e-02
 -9.9556923e-01   7.2197750e-02
  5.3976458e-01   7.9097539e-02
  8.0470556e-01   7.1136102e-02
  9.9568343e-01   6.6518448e-02
 -9.3947101e-01   7.7816047e-02
  6.8335372e-01   9.2550091e-02
  3.7433687e-01   8.3375357e-02
 -9.9982882e-01   7.6251574e-02
 -2.1332441e-01   7.8977600e-02
 -1.0691047e+00   7.3646978e-02
  3.2427695e-02   1.0000000e-01
  3.5846004e-01   7.5886562e-02
  4.0695999e-02   9.1820128e-02
 -4.0052176e-01   6.4869933e-02
  8.3490437e-01   8.0963410e-02
  1.3879719e+00   9.5779859e-02
 -9.0405986e-02   7.8864910e-02
 -1.1423417e+00   8.2520112e-02
 -9.6699953e-01   8.5849181e-02
  1.2111752e+00   8.1319340e-02
 -1.1741549e+00   7.3275983e-02
  1.0259533e+00   9.3873620e-02
 -1.2735857e+00   8.3373688e-02
 -1.2951015e+00   6.7918196e-02
  1.0872024e+00   9.4929218e-02
  9.9424049e-02   8.6365335e-02
  3.8851181e-01   9.5323518e-02
 -1.4135245e+00   9.8140702e-02
 -8.9258784e-01   9.2736982e-02
 -1.1632943e+00   9.4661288e-02
 -5.6610476e-02   6.7311361e-02
 -8.0551863e-02   6.8021215e-02
 -9.9584311e-02   5.0142050e-02
 -1.9449536e+00   6.7232214e-02
  1.1057248e+00   5.5866353e-02
 -2.0750323e-02   3.8434863e-02
  9.0965606e-02   1.5841343e-02
 -1.5108975e+00   9.3822442e-02
 -3.1465283e-01   8.3925053e-02
  4.2284048e-01   7.6643415e-02
  9.3675363e-01   6.8934031e-02
  2.1033372e-01   9.8484412e-02
 -2.4491453e-01   4.7323599e-02
  8.2193494e-01   7.2075918e-02
 -6.3061276e-03   9.2670023e-02
 -6.8521160e-01   7.3155522e-02
 -5.5089653e-01   6.4164378e-02
 -5.6901652e-01   9.5985457e-02
  9.7591132e-01   6.4525835e-02
  1.1362253e+00   6.4308763e-02
 -2.8274348e-01   8.4446393e-02
  6.4667892e-01   8.9227602e-02
  5.0089132e-02   6.9826089e-02
 -4.7129121e-01   8.8182405e-02
  6.7564064e-01   6.4545557e-02
 -1.6581333e-01   6.1299287e-02
 -1.4636881e+00   8.7849006e-02
  3.9138943e-02   6.2298484e-02
  4.0179282e-01   8.6109579e-02
 -3.9460681e-02   7.7900313e-02
 -1.2583720e-02   4.3268621e-02
  1.1417383e+00   4.1470367e-02
 -1.9735821e-01   7.6014839e-02
 -2.8777954e-01   1.0000000e-01
  3.5895455e-01   9.3404457e-02
 -9.9195874e-01   6.3800253e-02
  9.5088758e-02   7.1644492e-02
  5.5842394e-01   7.7497892e-02
 -7.0591170e-01   4.6491131e-02
 -3.0709589e-01   9.0035684e-02
 -2.6489222e-01   6.5555960e-02
  1.7765651e+00   9.0789303e-02
 -1.9936413e-01   6.2077906e-02
 -5.2065950e-02   7.4435614e-02
  6.3913095e-01   5.9080053e-02
 -7.4614388e-01   8.4582485e-02
  3.0323967e-01   9.4509363e-02
 -1.6686013e+00   8.4941164e-02
  2.0598370e-01   9.4883226e-02
  5.7391530e-01   8.2575388e-02
 -4.7471583e-01   7.4042574e-02
  2.3699063e-01   7.5227506e-02
 -1.1990014e+00   5.3260285e-02
 -4.5072481e-01   8.3918475e-02
  7.0302278e-01   9.2975885e-02
  1.8810652e+00   6.0532708e-02
  1.1348838e+00   5.5740375e-02
 -6.9212192e-01   9.0213209e-02
  1.4910392e+00   9.2967421e-02
  1.6982049e+00   8.5009940e-02
  1.2425611e-01   9.1859408e-02
  6.0748142e-01   5.4800645e-02
  1.0448823e+00   8.7595269e-02
  1.1174657e-02   6.1823603e-02
  6.4542276e-01   9.6785061e-02
 -1.0508459e+00   6.2794141e-02
 -4.5567313e-01   9.3035109e-02
  7.6199430e-01   7.9960398e-02
 -3.2278362e-01   9.0845600e-02
  6.7448705e-01   6.9944620e-02
  7.0256597e-01   5.6658927e-02
  8.3794016e-01   5.3431943e-02
  1.1173800e+00   8.5836396e-02
 -4.8924360e-01   6.7878418e-02
 -1.0306285e-01   6.8701603e-02
  7.6645577e-01   7.2754927e-02
  7.5036146e-02   7.9752855e-02
  1.4422749e-01   9.0994783e-02
  1.4643526e+00   8.4214449e-02
 -5.8587235e-01   9.1398582e-02
  1.2956172e+00   6.0244188e-02
 -8.3590937e-01   9.7228996e-02
  7.6878476e-01   6.5435447e-02
  9.9171266e-02   8.1750929e-02
  8.3050030e-01   8.9171395e-02
 -1.2791079e+00   6.8460740e-02
  2.8355144e-02   8.2319543e-02
  6.9109535e-01   7.9482786e-02
  7.2572321e-01   8.1257425e-02
 -1.0627075e+00   5.1802155e-02
 -1.2938146e-01   9.3725264e-02
 -3.5145670e-01   7.2580941e-02
 -1.2742612e+00   7.6513492e-02
  5.5546588e-01   6.7492880e-02
 -8.2272166e-01   8.8060118e-02
 -9.2719758e-01   9.8216511e-02
  1.8674569e-01   9.3158305e-02
 -5.8862859e-01   8.1225939e-02
 -1.1628665e+00   8.4485382e-02
  3.4545186e-01   7.1954384e-02
  8.4641635e-01   9.3939379e-02
 -6.1635578e-01   9.5395356e-02
 -1.1734439e-01   8.5544646e-02
 -2.9624856e-01   8.3464637e-02
  1.1241632e+00   7.1077012e-02
  8.3427869e-02   9.0521976e-02
 -4.8281321e-01   8.9317575e-02
  2.3398662e-01   7.6613396e-02
  2.5076446e-01   7.2394930e-02
  6.3312060e-01   8.0817252e-02
 -4.5175859e-01   7.2960667e-02
  5.4015696e-01   8.0113962e-02
 -6.2455889e-02   6.5632246e-02
 -5.1827657e-01   7.7135243e-02
 -3.8003090e-01   6.4889818e-02
 -1.1628209e+00   6.6913985e-02
 -7.5522131e-01   8.5806467e-02
 -2.3280878e+00   8.7664589e-02
 -3.3279464e-02   8.6664625e-02
 -3.5955095e-01   8.4071763e-02
 -8.9332139e-01   9.2750929e-02
 -8.8744068e-01   7.1717016e-02
 -3.2519215e-01   7.5619876e-02
 -1.4727755e+00   7.9376377e-02
 -7.9506569e-02   7.2820790e-02
 -5.2293158e-01   9.4941147e-02
 -2.1619017e-01   5.6004468e-02
 -4.2263427e-01   5.0352518e-02
  4.1441745e-01   5.8164440e-02
 -6.7968643e-01   8.4725335e-02
 -9.2310905e-01   6.0846541e-02
  6.0968173e-01   1.0000000e-01
  2.4039519e-01   7.4376762e-02
 -3.1367850e-01   7.5552084e-02
  4.2197987e-01   8.1948787e-02
 -4.9141759e-01   6.5588221e-02
  1.2165005e+00   7.5473353e-02
  6.7905217e-01   8.3910212e-02
 -1.1699809e+00   7.0195846e-02
  6.7826189e-02   7.3110454e-02
  1.5566602e-01   8.6666159e-02
 -1.0687346e+00   8.3268397e-02
 -6.8119603e-01   8.7364569e-02
 -8.5779369e-01   9.8503143e-02
  3.6864480e-01   7.5762555e-02
  2.5885978e-01   8.5043743e-02
 -1.7090799e+00   7.7835530e-02
  2.0576958e-01   7.3703229e-02
  4.2234641e-01   8.2587786e-02
  1.8499738e-01   5.3503502e-02
 -1.7421106e+00   8.0114298e-02
  9.8087639e-01   8.9747801e-02
 -2.5220731e-01   7.4842401e-02
 -7.3713556e-02   7.7809051e-02
 -1.4688949e-01   8.0093578e-02
  1.2750494e-01   7.9737842e-02
 -1.1080372e+00   6.7841768e-02
  5.6024516e-01   6.4020723e-02
  3.8111532e-01   9.9487774e-02
 -9.0259993e-01   8.0432303e-02
 -9.6687235e-02   9.5632337e-02
  1.1652771e+00   5.8711212e-02
  3.3845341e-01   6.9761120e-02
  1.6780318e+00   9.4728790e-02
 -6.7499667e-01   4.6400327e-02
  3.0951446e-01   6.0007416e-02
 -1.0762200e+00   7.9581156e-02
 -3.0084836e-01   8.9622602e-02
  9.1068524e-01   9.0889066e-02
 -6.1089259e-02   7.0043840e-02
 -1.1553821e-01   7.4035287e-02
 -2.4331830e-01   8.0253124e-02
  1.2813271e+00   9.8231077e-02
  1.0718181e+00   9.8470017e-02
  1.2380717e+00   7.0493847e-02
 -5.8842170e-01   6.4109817e-02
  7.5778818e-01   6.8570092e-02
  1.1640775e+00   5.3241771e-02
 -2.8903926e-02   7.0776626e-02
  1.9802889e-01   3.9625946e-02
  2.6267070e-01   2.9973172e-02
 -2.2345100e-01   2.8789666e-02
  6.5072685e-01   7.0533685e-02
  4.1984603e-01   6.6571668e-02
  5.8817947e-01   6.2354553e-02
  5.7253476e-02   6.2287513e-02
  1.3445294e-01   8.0045171e-02
  4.2739701e-01   9.0053409e-02
 -6.7957902e-01   8.3336607e-02
 -8.9444971e-01   6.4771056e-02
  4.5021060e-01   9.3865670e-02
  8.2282937e-01   8.7662749e-02
 -7.3185456e-01   7.1754567e-02
 -1.9747137e-01   7.6512933e-02
 -1.3660941e+00   9.5975555e-02
  1.5769680e-01   6.5096729e-02
 -2.7530515e-01   6.6311613e-02
 -4.9889022e-01   4.8544947e-02
 -6.7983747e-01   9.2288122e-02
 -1.1144300e+00   6.9721662e-02
 -1.3780578e+00   6.4090870e-02
  2.6252386e-03   8.5147187e-02
 -1.7439936e-01   9.2168197e-02
  4.1777927e-01   7.3007792e-02
 -5.2069956e-01   7.8930244e-02
  1.4472586e-01   8.3792448e-02
 -1.6950233e+00   8.6157382e-02
  4.0922660e-01   9.6308999e-02
 -8.1358671e-01   9.3488380e-02
  1.7374399e-01   7.8451581e-02
 -3.7685668e-01   8.3954975e-02
 -2.5177649e-01   9.1885649e-02
  5.5953377e-01   8.1721552e-02
 -1.1738498e-02   5.8913760e-02
 -8.8855267e-01   9.2929490e-02
  9.9839389e-01   7.7537127e-02
 -1.3697156e+00   7.9869717e-02
 -8.3189440e-01   5.5860572e-02
  8.2100397e-01   5.2109823e-02
  2.4517365e-01   9.5482439e-02
 -7.5280696e-01   7.9471648e-02
 -5.6081589e-02   5.2409358e-02
 -1.9434951e-01   5.5529680e-02
 -2.0923851e-01   7.5792402e-02
 -3.3410081e-01   6.9112740e-02
  1.1925676e+00   7.4078210e-02
  3.7490937e-01   7.3644288e-02
 -1.0214202e-02   7.9135038e-02
  8.4907514e-01   6.7623310e-02
  2.1964544e-01   7.9041012e-02
  9.3867242e-01   9.7210079e-02
 -5.4582971e-01   7.5180337e-02
  1.3111086e+00   9.2252567e-02
  2.3689699e-01   5.2519061e-02
  2.2127438e+00   6.9615342e-02
  1.3824881e+00   1.0000000e-01
  1.7264289e+00   6.4831287e-02
  7.7834386e-01   8.4260382e-02
 -9.4502133e-01   6.4944834e-02
 -2.3874761e-01   5.9710279e-02
 -5.7778728e-01   8.6034268e-02
 -9.7048059e-02   9.5593356e-02
  4.6976563e-01   8.8975064e-02
 -9.9600834e-01   8.4414147e-02
 -3.4862638e-01   9.0517946e-02
  8.6007077e-01   6.3202493e-02
  1.0338068e+00   5.7266444e-02
  3.7264097e-01   7.2038397e-02
 -1.4936674e-01   1.0000000e-01
 -1.0173147e+00   4.4024173e-02
 -6.7815524e-01   9.8810874e-02
 -4.6987122e-01   8.7730631e-02
  2.4160899e-01   8.8160194e-02
  4.7595277e-01   8.0491088e-02
 -5.8470476e-01   9.1595173e-02
 -4.0572006e-01   5.6457996e-02
  8.9650184e-02   9.2038341e-02
 -1.0445431e+00   6.4111732e-02
 -1.5202897e+00   6.6415861e-02
  6.0702181e-01   7.2790809e-02
  8.7965095e-01   6.8411000e-02
  2.9794307e-02   8.5941486e-02
  8.2173389e-01   7.3113643e-02
 -2.0047663e-01   9.7705014e-02
  8.0918837e-01   6.6773757e-02
 -6.0702044e-01   9.6204542e-02
 -1.6421854e+00   7.1534015e-02
  1.3650098e-01   7.0396207e-02
  5.2856088e-01   5.1217280e-02
  4.5668304e-01   5.0857648e-02
  3.3578017e-01   9.9970333e-02
 -6.4689301e-02   6.2420376e-02
 -6.7611778e-01   7.3452726e-02
 -8.5746711e-01   9.8276071e-02
 -3.7079132e-01   9.2234813e-02
 -2.5809035e-01   7.4745953e-02
 -5.1959473e-01   8.4832199e-02
 -5.5191594e-01   9.0409540e-02
 -8.5759915e-02   6.0549598e-02
  1.3774337e+00   4.0429614e-02
 -1.1934451e-01   8.7860689e-02
  1.2513149e+00   3.8430229e-02
 -6.0774380e-01   5.5990707e-02
 -4.5747393e-01   6.7907356e-02
 -6.6564673e-01   5.3768244e-02
  1.7851071e-01   9.9353760e-02
 -1.4676924e+00   6.2641323e-02
 -7.0748353e-01   8.9626350e-02
 -7.3225343e-01   8.0160402e-02
 -1.6835962e-01   8.9226097e-02
 -7.0788580e-01   8.8540383e-02
 -5.8144474e-01   8.4967993e-02
 -4.4466081e-01   7.7492677e-02
 -1.2373227e+00   6.2310923e-02
  2.2194390e-01   8.6932831e-02
 -1.0571818e+00   5.3889867e-02
  1.2889761e+00   8.6748138e-02
 -3.8600481e-01   8.1846803e-02
  1.3619969e+00   8.2062557e-02
  7.4385560e-01   8.5701168e-02
  1.1100818e+00   7.4688047e-02
  1.1325665e+00   9.7538799e-02
  7.8322476e-01   8.5836597e-02
 -2.6174957e-01   9.6244231e-02
 -5.5795270e-01   5.6027379e-02
 -7.2089505e-01   8.1570961e-02
 -1.4387702e+00   7.5466461e-02
 -1.7119978e-01   8.3733484e-02
  4.0255162e-01   6.2575608e-02
  8.5811116e-02   8.8674925e-02
  4.9992499e-01   7.8315780e-02
 -2.9380995e-01   6.6187218e-02
  1.0746510e+00   7.7882737e-02
 -7.3542529e-01   9.7938888e-02
  6.4799428e-01   7.8210391e-02
 -1.9167036e+00   6.9379926e-02
 -9.4647713e-02   9.5302209e-02
  2.5962594e-01   8.9034207e-02
 -1.8793308e+00   8.4337570e-02
  1.4850580e+00   7.4904747e-02
  1.6609159e+00   8.8864379e-02
  9.8371953e-01   9.1584206e-02
 -5.9016168e-01   9.8560907e-02
  4.3350473e-01   8.1928819e-02
 -1.0326037e+00   7.8721166e-02
 -6.4878339e-01   7.2661631e-02
  1.3010101e+00   9.7242765e-02
 -8.0581462e-01   9.6333675e-02
 -7.1734715e-01   8.9002103e-02
  1.8304956e-01   9.5068492e-02
  5.8705282e-01   7.0057206e-02
  1.2805123e+00   8.7022364e-02
 -7.6642990e-01   9.3849540e-02
 -4.2421767e-01   8.4846579e-02
 -9.2343795e-01   6.6927478e-02
  3.1163070e-01   9.9921666e-02
  4.1708580e-01   8.3806992e-02
  1.4976581e+00   6.8960272e-02
 -1.5315963e+00   9.6207447e-02
  1.4430701e+00   9.0322547e-02
 -1.6189337e-01   7.0840500e-02
 -1.5867069e-02   9.0174735e-02
  2.1485113e-01   7.2920553e-02
  2.8541734e-02   9.1148175e-02
  1.6639215e-01   7.9048522e-02
 -1.5907142e-01   6.7104489e-02
  6.3227868e-01   8.2587078e-02
  3.2952118e-01   6.5144777e-02
 -1.4670486e+00   1.0000000e-01
 -7.0632118e-01   4.6941351e-02
  1.1807595e+00   9.1606349e-02
 -3.2864520e-01   5.2088857e-02
 -5.6978732e-01   7.8256257e-02
  5.4249978e-01   7.1856774e-02
  4.5191613e-01   5.2481789e-02
  1.9426361e-01   6.9858268e-02
  1.2738242e+00   9.3085185e-02
  9.8807597e-01   8.1850268e-02
  1.7073144e+00   8.0918290e-02
  4.6926969e-01   9.2994593e-02
 -8.5308468e-01   9.4299421e-02
  7.5017542e-01   8.5927099e-02
 -1.8263489e-01   9.7738162e-02
 -1.2979399e+00   7.9342574e-02
  2.7250066e-01   5.4737166e-02
  7.1570987e-01   6.5630458e-02
  7.5212473e-01   8.2173608e-02
 -5.3225666e-01   7.5518548e-02
  7.7698469e-01   6.0439747e-02
  7.8419589e-02   7.6101229e-02
 -1.6735093e-01   7.1851783e-02
  3.3581531e-01   8.4219962e-02
  1.5898359e-01   9.9263161e-02
  1.5955302e-01   7.7471085e-02
 -1.1237485e+00   7.2323374e-02
  3.8316569e-01   9.3184955e-02
 -3.9743561e-01   6.8355426e-02
 -9.2458624e-01   8.0630124e-02
  9.6183878e-01   5.2218214e-02
  1.2160505e-01   7.5706527e-02
  1.4254147e-01   4.2166594e-02
 -9.1992062e-01   6.6445202e-02
 -3.9534399e-01   6.6400059e-02
  4.9621847e-02   9.8877124e-02
 -4.6503362e-01   8.3419189e-02
  5.5859625e-01   9.7772911e-02
 -9.1342050e-01   6.0089551e-02
  1.4885430e-02   7.9617448e-02
 -6.1301941e-01   7.3217966e-02
  1.0802419e+00   8.0104023e-02
  9.2672326e-02   4.4840045e-02
  2.3465952e-01   8.1652634e-02
  7.3989910e-01   9.4778903e-02
  1.5527139e+00   9.4661757e-02
  4.8052037e-01   6.1969772e-02
  2.4663472e-01   5.0414335e-02
  5.3257388e-01   8.9913033e-02
 -8.8334745e-01   7.6972097e-02
 -1.4946817e+00   7.7528857e-02
  2.5844092e+00   7.6676793e-02
  3.2299921e-01   9.7000830e-02
 -1.3493187e+00   8.0477290e-02
  1.1194477e+00   6.0505312e-02
  9.2936808e-01   3.9787658e-02
 -6.4310145e-01   4.0911265e-02
  5.9789658e-02   4.9841341e-02
 -1.8608168e-01   2.6384484e-02
 -1.4822222e-01   7.2617948e-02
 -7.8701913e-01   7.5991854e-02
 -2.1009728e-01   9.5357038e-02
  9.6756099e-03   8.1571832e-02
 -9.2723906e-01   7.3965646e-02
 -1.0069296e+00   8.2428031e-02
 -3.6825049e-01   8.9568235e-02
  7.5648433e-01   9.0679184e-02
 -1.9581722e-01   7.4036062e-02
  9.3014205e-01   9.9905580e-02
 -5.4716611e-01   9.4568990e-02
  1.9999868e-01   6.6176914e-02
 -4.8466247e-01   9.7314447e-02
 -5.0487012e-01   8.7627575e-02
 -2.4127080e+00   8.6609468e-02
 -1.5879751e+00   9.5894866e-02
 -5.1140830e-02   5.2131366e-02
 -1.0214177e+00   8.3163366e-02
  1.0812719e+00   7.6906413e-02
 -5.7141024e-01   9.2854008e-02
 -5.0590163e-01   9.8451577e-02
 -6.1820346e-01   9.1663383e-02
 -2.1167487e-01   9.8401695e-02
  1.4239393e+00   8.1488892e-02
 -7.9492277e-01   7.5359806e-02
 -6.6583157e-01   8.2852803e-02
 -1.8777373e-01   9.1403581e-02
  1.6531835e-01   8.4216379e-02
 -6.4283246e-01   8.0135368e-02
  1.1349607e+00   9.5232971e-02
 -1.2785404e+00   9.3704082e-02
  1.1181871e+00   6.4558022e-02
 -1.0515618e+00   5.7943497e-02
 -3.3058813e-01   6.1309773e-02
  1.1175750e+00   9.2683516e-02
 -5.7486836e-02   8.0719858e-02
  8.6795539e-01   7.1600571e-02
 -1.5736524e-02   6.2631473e-02
  2.3400062e-01   9.6048772e-02
  4.8595586e-01   7.5423524e-02
 -1.2262689e+00   8.9049198e-02
  1.0338304e+00   6.7893110e-02
  1.1604631e+00   8.5887484e-02
  1.0679168e+00   9.2845127e-02
  1.0961692e+00   5.9911247e-02
  5.2818125e-01   7.7018030e-02
 -2.2862792e-01   9.7280964e-02
  1.4012726e-01   7.5835042e-02
 -1.0874928e+00   7.6757289e-02
  6.4706790e-01   8.0663703e-02
  9.8857242e-01   6.3750543e-02
 -8.0950223e-03   6.5140255e-02
 -1.2686470e+00   9.7018667e-02
 -4.0925989e-01   8.2193799e-02
 -4.1787055e-01   3.6051832e-02
  1.1714437e+00   7.1837410e-02
  1.0501492e-01   8.9990474e-02
 -2.6724121e-01   5.5511441e-02
 -7.0583150e-02   4.5851808e-02
 -8.2274795e-01   6.4801410e-02
  7.4174613e-01   9.1205843e-02
 -2.0550791e-02   8.3567336e-02
  6.4397597e-01   4.9500208e-02
  5.2972645e-01   2.5156798e-02
 -1.0390613e+00   9.1095515e-02
 -1.9489776e-02   4.7686316e-02
 -7.5718230e-01   7.3808253e-02
  7.6861091e-02   9.2706487e-02
  8.0146414e-01   5.9059188e-02
 -5.4656976e-01   7.0962399e-02
 -3.3768475e-01   2.8469272e-02
  1.4624416e+00   9.6677534e-02
 -5.1798016e-01   9.2911340e-02
 -7.2812222e-02   3.1326655e-02
 -7.5915623e-01   6.4539604e-02
  9.0109229e-01   7.9172544e-02
  3.5514668e-01   8.9189731e-02
  3.1029314e-01   7.9073288e-02
  3.8874021e-01   9.3582854e-02
 -4.2631844e-01   2.1583565e-02
  9.8443890e-01   7.0821725e-02
 -6.3362670e-01   8.8218257e-02
  2.1973605e-01   7.5432986e-02
 -1.1196468e-01   6.3093923e-02
 -1.0438960e-01   8.5934959e-02
 -8.5223460e-01   6.2388107e-02
 -5.5875516e-01   9.8874621e-02
  5.0378877e-01   8.1231974e-02
  6.1779642e-01   8.4346749e-02
 -8.2119715e-01   8.1008933e-02
 -9.9285561e-01   8.1005521e-02
  6.2684709e-01   7.0666716e-02
  2.7649936e-01   6.8863004e-02
  8.3558863e-01   6.2988400e-02
  2.5390080e-01   9.2672966e-02
  3.1060991e-01   9.8056212e-02
  3.0108768e-01   7.0646986e-02
 -1.5357746e+00   7.1242243e-02
  2.2206844e-01   9.0147786e-02
 -8.5548915e-02   7.6804183e-02
  5.9510744e-01   6.4351529e-02
 -3.8358775e-01   9.2143290e-02
  1.0602284e-01   8.1547581e-02
 -1.1581926e+00   7.8781649e-02
  1.0505258e+00   8.2628064e-02
 -3.7910974e-01   9.4139427e-02
  1.0622426e+00   8.7302998e-02
 -1.2390063e+00   7.5611725e-02
 -1.7207762e+00   8.7370902e-02
  2.8825757e-01   9.1901340e-02
 -6.5963238e-01   9.0925716e-02
 -2.6904953e-01   9.2457555e-02
 -1.6907982e+00   9.6413575e-02
  1.1723556e-01   7.8242838e-02
  1.8152455e+00   8.1758216e-02
  1.0733031e+00   6.7316249e-02
 -3.5462734e-01   9.7907573e-02
  5.7126957e-01   9.7195081e-02
 -1.2191869e+00   7.3732525e-02
 -1.4034620e-01   5.7765458e-02
 -5.0427598e-01   5.7635453e-02
  1.4681780e-01   7.4392214e-02
 -2.4897601e-01   8.3439454e-02
  5.2990329e-01   7.3896743e-02
  6.1941510e-01   7.7458657e-02
  9.7764146e-01   9.3604505e-02
  1.1701393e+00   9.6116103e-02
 -1.0176945e+00   7.4827142e-02
 -6.3437861e-01   5.4155283e-02
 -2.2031682e-02   4.7010913e-02
 -6.8961775e-01   7.3694393e-02
  3.8410744e-01   7.1328491e-02
 -2.0875104e-01   6.3422248e-02
 -1.4500434e+00   5.4419719e-02
 -1.1481863e+00   9.0909809e-02
  3.6660534e-01   4.9603738e-02
 -4.3088609e-01   9.7512715e-02
  1.2979448e-01   7.9696879e-02
 -4.3870419e-01   6.1960831e-02
 -7.9443306e-01   9.2617601e-02
 -4.0197286e-01   7.8094691e-02
  3.7713230e-01   8.9129768e-02
 -1.3206811e+00   8.3584137e-02
  4.9708974e-01   5.7134949e-02
 -1.0697306e+00   6.1599929e-02
  3.0684468e-01   7.9909660e-02
  9.3071356e-02   9.0052508e-02
  4.1657552e-01   9.3167588e-02
 -3.5784751e-01   7.2265394e-02
 -1.6926828e-01   7.9033867e-02
 -1.0595508e+00   7.8638829e-02
 -1.3381350e+00   8.1737764e-02
 -5.4095161e-01   8.7676100e-02
  1.7611563e+00   9.5335849e-02
  1.1459079e+00   6.8509012e-02
 -1.3737196e+00   8.0677167e-02
  1.1395562e+00   9.2478506e-02
 -3.5094464e-01   7.2931185e-02
 -6.5677023e-01   6.4105235e-02
  7.9752100e-01   6.1789092e-02
  6.3567394e-01   9.4829127e-02
  8.5062838e-01   5.9092700e-02
 -1.5006077e+00   7.5580344e-02
 -1.4751481e-01   5.7320572e-02
  1.0484062e-02   8.1716008e-02
  1.1783742e+00   7.1783438e-02
  2.5228670e-01   8.2481280e-02
  3.1310999e-01   5.4048784e-02
 -4.0993306e-01   7.8375041e-02
 -1.6810094e+00   8.4028125e-02
 -1.0772552e+00   7.5532891e-02
  1.5624418e+00   7.3455997e-02
  1.2023903e+00   9.3007810e-02
  4.9922305e-01   6.4444765e-02
 -1.5639931e-02   9.1260955e-02
 -4.9310330e-01   7.2011806e-02
  5.0320393e-01   9.7423770e-02
 -3.2587922e-01   5.7657655e-02
 -2.2695214e-01   7.4216336e-02