 -5.5628337e-02   9.3825907e-04
  8.4982234e-01   7.8381988e-04
 -3.5283107e-01   1.0852618e-03
  7.6203354e-02   2.4773993e-03
  4.2806917e-01   2.5147450e-04
 -2.3748389e-01   7.0246803e-03
 -3.5446398e-02   1.4746018e-02
  1.3148196e-01   3.6088813e-03
  1.2649971e-01   5.2493396e-03
 -5.7617459e-03   1.0103227e-02
  4.8502430e-02   5.5996929e-03
  5.9239990e-03   3.8769490e-03
 -5.5805683e-01   1.4135641e-03
 -7.0967782e-01   7.4115875e-03
  2.6350848e-03   1.5914747e-02
  1.4483491e-01   3.8219909e-03
  4.1093398e-02   1.1491146e-02
 -7.7751696e-01   4.7652503e-03
  5.7035244e-01   6.3186516e-03
 -7.6593203e-03   1.2962885e-02
  4.1578524e-03   8.4316861e-03
 -3.4525882e-02   1.1876083e-02
 -3.9995036e-01   6.9061555e-03
 -1.0117519e+00   2.7370816e-03
  2.5783734e-02   1.6380873e-02
  7.4442796e-02   1.4785832e-02
  1.8153228e-02   1.0955561e-02
  4.5201108e-01   6.8281693e-03
 -3.2895157e-01   8.3323689e-03
  2.8041299e-02   2.0585110e-02
  4.5803121e-01   1.0432232e-03
 -1.4437261e-01   8.3598663e-04
 -8.5716665e-02   9.3800429e-04
  2.0984044e+00   2.1677434e-03
  1.7019503e-01   7.4571930e-04
  5.9281909e-01   7.3501780e-03
  3.8958374e-02   1.2495221e-02
 -5.2080881e-02   2.0135990e-03
 -4.2467803e-01   2.8327978e-03
 -6.5330803e-02   1.2204707e-02
 -1.9080853e-01   8.9078695e-03
 -6.5707313e-03   1.3709290e-02
  9.7913794e-02   3.3899043e-03
  1.7656438e-02   4.8137177e-03
 -4.7998410e-02   5.1336871e-03
  1.4896689e-02   6.0407547e-03
  8.5835140e-03   1.3580998e-02
 -2.9955879e-01   1.7450905e-03
 -4.2612903e-04   4.0237843e-03
  2.5427249e-01   5.9943427e-03
 -2.2402754e-02   2.3447691e-02
  3.1489994e-02   1.2564639e-02
  2.4117050e-01   8.9821341e-03
  1.1639168e-02   2.4767220e-03
  1.4735063e-04   1.0551084e-02
  1.1968141e-02   1.5096594e-02
  9.0959994e-03   2.2865323e-02
 -5.3716552e-02   4.9288706e-03
  5.4969180e-02   1.4718181e-02
  2.0092737e-03   1.1130564e-02
  1.1471048e-02   1.5932942e-02
  9.1438115e-02   7.2936732e-03
 -2.2607440e-02   1.4289278e-02
  6.5529794e-02   4.0952200e-03
 -2.0297542e-02   1.0984515e-02
 -2.0989833e-02   2.0978849e-02
  7.2836876e-02   2.0413408e-02
 -3.5819665e-03   2.2869326e-02
  2.1909181e-02   1.1926208e-02
  4.8996225e-02   1.5227332e-02
  5.7110105e-02   1.4336598e-02
  2.2955161e-02   1.0173586e-02
 -1.8008580e-03   1.6419906e-02
 -1.5514061e-02   3.0535541e-03
 -3.6181912e-02   2.0491073e-02
  6.7703621e-03   1.2806878e-02
 -4.8760124e-03   1.5771169e-02
  8.8545084e-03   1.9111291e-02
 -3.2204461e-01   1.4093386e-03
 -7.2639264e-02   1.5518133e-02
 -1.4626515e-02   1.5314191e-02
 -6.5930419e-02   1.0582220e-02
 -3.6981333e-02   1.4035149e-02
  5.9566107e-02   1.2901730e-02
 -2.2917255e-03   1.4100157e-02
 -5.0205398e-02   2.2269107e-02
 -3.5882171e-03   7.9870727e-03
  7.2003021e-03   2.4487471e-02
  2.2611745e-02   8.6761583e-03
 -1.4624554e-02   3.7439649e-03
  8.7493801e-01   1.3855932e-04
  2.2095118e-01   8.0756476e-04
 -1.5033056e+00   2.0830448e-04
  6.7063814e-01   2.3617300e-03
  2.3588894e-02   9.7396330e-04
 -1.9585320e-01   2.9047234e-03
  1.2160304e-02   2.5131702e-02
 -9.4365871e-01   2.0985624e-03
  9.5188610e-02   8.3621927e-03
  4.3737315e-02   8.1959981e-03
 -2.4678285e-01   2.8710396e-03
  3.1984307e-02   6.9015990e-03
 -8.6608440e-01   1.8508020e-03
 -3.0441445e-01   2.6773463e-03
  1.4645744e-02   5.4989434e-03
 -3.8699138e-03   1.1886428e-02
 -3.2441267e-03   9.9204658e-03
 -5.7948947e-01   2.4400861e-03
  6.0205430e-02   4.3304344e-03
 -2.1296332e-02   2.1968275e-02
 -2.8331585e-02   1.8553896e-02
  1.6495729e-02   1.0153757e-02
 -1.6235401e-01   6.3676802e-03
  4.4444345e-02   6.8051438e-03
  9.0464503e-02   4.0506963e-03
 -3.0295397e-03   8.8075241e-03
 -1.6255651e-02   9.6755857e-03
  3.8555734e-02   1.0353689e-02
 -4.3841757e-02   3.9307503e-03
  1.1679627e-02   7.3225084e-03
 -7.6507912e-03   1.2994343e-02
  7.2270357e-03   2.5448490e-02
 -6.6461124e-02   1.7859548e-02
  5.7893270e-04   7.9798717e-03
 -1.2837244e-03   1.5651876e-02
 -8.3211489e-02   1.2457638e-02
 -1.6859602e-02   1.7920101e-02
  3.3509482e-02   2.3694197e-02
 -6.5081418e-02   1.5547383e-02
 -3.9110348e-02   2.8164182e-02
 -1.5334253e-02   1.3683473e-02
  7.5845048e-03   1.3348594e-02
  3.8011275e-02   1.1906824e-02
 -4.6524871e-03   6.8664984e-03
  2.2753494e-02   2.4392977e-02
 -9.2568221e-03   2.0684954e-02
 -1.1206139e-02   1.8441224e-02
 -2.3812833e-03   1.3920644e-02
  1.5512854e-02   5.5771004e-03
  5.6001242e-02   1.0186079e-02
  3.8002525e-02   4.6294560e-03
 -2.1818845e-02   1.3346810e-02
  1.7728934e-02   1.5625143e-02
  4.1076774e-03   2.4742767e-02
 -2.1522582e-02   1.5615432e-02
 -2.5010964e-02   1.0573870e-02
 -6.0816791e-02   3.1454068e-02
 -4.4634204e-02   7.2464072e-03
  3.0979796e-03   1.5438965e-02
 -8.4414119e-03   1.9529795e-02
  2.4281504e-02   5.7057096e-03
 -3.0594513e-02   1.8328104e-02
  7.7420608e-03   6.5314053e-03
  9.4509004e-03   2.8790664e-03
  3.2066992e-03   2.3492335e-03
  1.4147107e-02   1.0980020e-02
  1.8715231e-02   1.4059329e-02
  1.3250989e-04   1.5787086e-02
 -3.2390843e-03   7.1662888e-03
 -1.1868402e-02   2.2595599e-02
  1.7529979e-02   6.0580843e-03
  5.4027323e-02   1.4923112e-02
  4.6683471e-03   4.6080328e-03
 -4.5723305e-03   5.3515043e-03
  4.1792650e-02   1.6972275e-02
 -8.6403236e-04   1.9125745e-02
 -9.3427850e-03   8.9797517e-03
  3.2505479e-02   6.2879343e-03
 -7.4626923e-02   1.6633937e-02
 -6.9615468e-03   1.5374520e-02
 -2.1121199e-03   1.1584183e-02
  5.7241801e-02   1.6673751e-02
 -1.0819049e-02   1.4865341e-02
 -3.1263161e-02   9.4894599e-03
 -6.8512574e-02   2.7773760e-02
 -6.2716797e-02   1.7225977e-02
  6.6838793e-02   8.8810483e-03
 -4.1021727e-02   5.2984781e-03
 -7.9759099e-02   7.0998073e-03
  1.1201112e-02   1.1926310e-02
  1.0238372e-01   4.2604203e-03
 -3.0423967e-02   1.2928381e-02
  1.5777318e-02   2.9612153e-03
 -4.7034394e-02   1.8510943e-02
 -2.2746801e-02   1.3630655e-02
 -1.1796071e-02   1.5020999e-02
  1.8960562e-02   7.0194774e-03
 -7.3916698e-04   1.7771389e-02
 -2.7463753e-02   1.7696999e-02
 -2.7214291e-02   3.9476477e-02
  1.0642463e-02   1.3769392e-02
 -5.3813182e-02   8.7492652e-03
  3.7371509e-03   1.6393239e-02
  3.1097107e-02   8.2564568e-03
  3.9855316e-02   9.9961422e-03
  3.6892511e-02   8.3096717e-03
  3.2788619e-02   1.7249128e-02
  2.8909601e-02   1.1860500e-02
  3.3524886e-02   2.4443511e-02
 -5.4369131e-03   7.8120134e-03
 -4.4738161e-03   1.9143637e-02
  2.0326478e-02   2.2836406e-02
  3.6106393e-02   1.6865524e-02
  5.5364072e-03   1.8731182e-02
 -2.5365727e-03   6.8948958e-03
 -2.3923099e-02   1.4957909e-02
  1.3844093e-02   1.3398897e-02
  2.1108845e-02   6.5289126e-03
  5.4455169e-02   9.0145851e-03
  4.4527024e-02   2.6639789e-02
  1.2120697e-01   4.1611302e-03
 -3.0225895e-02   1.0441223e-02
  2.1322859e-02   1.3855611e-02
  9.9489058e-04   1.1474406e-02
 -6.5235477e-03   9.8073436e-03
 -3.5032164e-02   3.7603311e-02
  1.5188501e-02   1.6648456e-02
  2.1985244e-02   1.0644233e-02
 -3.3177260e-02   1.0824529e-02
  4.9633435e-03   1.2485442e-02
  3.0767992e-02   1.0244392e-02
 -2.0370012e-02   8.1021599e-03
 -9.5956633e-03   1.5308927e-02
  7.5055026e-02   1.7958755e-02
 -1.8559640e-02   9.3991561e-03
  5.4908800e-03   1.3910439e-02
  1.5814362e-02   1.3966434e-02
  1.6712755e-02   1.1085589e-02
  2.1492915e-02   1.0024561e-02
 -2.3895638e-02   9.3920873e-03
 -1.8234128e-02   3.0504949e-02
 -7.3176891e-02   1.7890515e-02
  8.5758559e-02   6.3778250e-03
  6.9445655e-02   1.1283854e-02
 -1.1738455e-02   4.3210299e-03
 -3.4697775e-02   2.3176322e-02
 -3.1140765e-02   1.1583257e-02
 -8.1298761e-03   1.6169187e-02
  3.2151602e-02   9.8234322e-03
 -3.6337851e-03   1.1319390e-02
  1.1906740e-01   3.1427367e-04
 -2.7664042e-01   2.4921270e-03
  3.7489051e-01   1.3371032e-03
  9.7262847e-01   1.9576435e-03
  4.5122880e-01   1.1719849e-03
 -5.3831249e-01   4.3564858e-03
  3.0497020e-02   1.8764570e-02
 -1.1081251e-01   2.3387151e-03
  4.0981892e-02   6.0481224e-03
 -8.8268174e-03   4.8290933e-03
 -6.5703750e-02   4.2216647e-03
 -4.0781889e-02   1.0397729e-02
 -5.7151264e-01   2.2386217e-03
 -5.0249934e-01   2.2782586e-03
  1.1782791e-02   1.1334429e-02
  1.1117443e-01   5.4287389e-03
 -2.1203194e-02   1.3190878e-02
 -9.8125714e-01   2.0859102e-03
 -2.0644441e-01   2.6691433e-03
 -2.4843302e-03   4.9975724e-03
 -6.8581522e-02   1.3046483e-02
 -4.8932801e-03   1.2647941e-02
 -8.2250661e-01   4.4231121e-03
  2.3711668e-02   7.0105884e-03
 -1.5157504e-03   1.1817848e-02
  4.1831564e-02   1.2554132e-02
  1.5030251e-02   1.2125760e-02
 -8.8910706e-02   3.0761547e-03
 -9.8051995e-02   8.2994644e-03
 -8.3039096e-03   1.4151495e-02
  2.7035722e-01   9.7109936e-03
  2.1154474e-02   1.0561298e-02
  2.1506561e-02   1.1555430e-02
 -2.3203557e-02   5.4051080e-03
  1.0030529e-02   6.6257999e-03
 -6.5306206e-03   1.6123453e-02
 -5.5421437e-03   1.2312943e-02
 -8.0881937e-04   1.3245462e-02
  3.1760596e-02   4.4041164e-03
 -4.2859516e-03   2.1850459e-02
  2.2608746e-02   2.2654505e-02
  6.9462702e-02   1.3029684e-02
 -1.7153154e-03   1.5730254e-02
  2.4652691e-03   2.2014773e-02
 -1.9974619e-02   2.2834996e-02
 -3.5356674e-02   1.1306813e-02
 -7.3372014e-03   2.6534397e-02
 -1.8244494e-02   1.2743889e-02
 -1.7383903e-02   8.8998610e-03
  6.3710593e-02   6.2709497e-03
  1.3310689e-02   1.1805046e-02
  1.4221420e-02   1.1209715e-02
 -1.3702297e-01   1.0876592e-02
  6.9096141e-02   3.6649997e-03
  1.8742310e-02   2.1603959e-02
 -2.5144860e-02   2.0228410e-02
  1.7876383e-02   2.2815835e-02
 -1.5707472e-02   1.3861860e-02
  3.8740575e-02   1.5963783e-02
 -1.2612208e-02   2.1338703e-02
  8.7679317e-03   8.2485145e-03
 -3.8815511e-03   9.7741475e-03
  1.5907647e-02   1.0624415e-02
 -1.6262826e-02   6.6800849e-03
 -3.2909781e-02   8.9397216e-03
  3.4373794e-02   2.4469197e-02
  1.0196480e-01   2.0024436e-02
  7.3210378e-03   1.4260808e-02
 -7.8160865e-03   2.2585455e-02
  3.0696675e-02   2.4018414e-02
  4.7336411e-02   1.2354857e-02
  3.7764274e-02   1.0919728e-02
 -2.3022054e-01   6.3465787e-03
  3.1246847e-04   1.7746860e-02
 -1.4167126e-02   1.2364768e-02
 -1.3695863e-02   1.4534900e-02
 -1.4597394e-02   1.3914374e-02
  6.4481460e-02   9.8331189e-03
 -1.0475740e-02   2.0210568e-02
 -2.3199614e-02   1.7325804e-02
  4.1602687e-03   7.3475093e-03
  1.1708041e-02   1.8283324e-02
  3.1631872e-02   1.2419833e-02
  2.0613084e-02   1.1927552e-02
 -4.3139285e-03   6.5743430e-03
  1.4835075e-02   1.2717500e-02
  1.9307584e-02   1.3938570e-02
 -1.8698894e-03   1.1487457e-02
  2.7104901e-02   8.0474652e-03
 -3.9353162e-02   1.4190263e-02
 -3.4901525e-03   1.1266205e-02
  2.5775067e-03   1.2000743e-02
  5.7611238e-02   7.1914373e-03
  1.2265308e-02   1.6431199e-02
  3.1780999e-02   1.2740011e-02
 -1.0921665e-01   2.2523740e-02
 -2.5287688e-02   4.3869219e-03
  1.1453845e-03   1.5095519e-02
  2.7048014e-02   5.5865338e-03
  1.5046038e-01   7.7999216e-03
  8.8124461e-03   2.1046765e-02
 -1.4888554e-02   1.2430956e-02
 -4.6306886e-02   8.5118972e-03
  2.6390590e-02   1.4894462e-02
 -1.8502042e-02   1.0797398e-02
  2.5533546e-02   1.4661673e-02
 -1.1740713e-03   2.3603091e-02
 -4.4989616e-02   9.8815728e-03
  7.9684049e-02   1.8671013e-02
  2.5967121e-02   1.8358044e-02
  2.3303827e-02   1.5386973e-02
 -1.5646029e-02   1.4670664e-02
 -3.1388998e-02   1.1680133e-02
 -8.2211047e-03   2.8206095e-02
  4.9375840e-02   1.7276481e-02
  2.1480272e-02   1.0857011e-02
 -7.1677029e-02   1.7526219e-02
 -1.0555323e-02   1.3919098e-02
  1.4889426e-02   2.8207248e-02
 -6.5724230e-03   1.2424783e-02
  3.8284358e-02   5.0815702e-03
 -2.6908484e-03   1.2576585e-02
  2.0982673e-02   4.6630418e-03
  2.2318041e-02   4.1164584e-03
  2.7281573e-02   9.7476412e-03
 -9.1352742e-03   1.1618730e-02
  1.4366232e-02   1.0087507e-02
  5.5140262e-03   1.0875484e-02
 -1.0449814e-02   1.1149378e-02
  4.4898815e-03   7.3108091e-03
 -1.3232111e-02   2.0467352e-02
 -9.2210267e-03   1.5694940e-02
 -2.5700774e-02   7.0133177e-03
 -3.9813248e-03   9.0978080e-03
  6.3208207e-02   3.0135505e-02
 -2.0398002e-02   5.4631480e-03
  8.7952666e-04   2.1456614e-02
 -9.7137678e-04   5.2606016e-03
 -1.5307399e-02   8.7989280e-03
  4.5846596e-02   1.8249623e-02
  4.4129472e-03   2.0960432e-02
 -8.7167220e-03   1.6996048e-02
  3.3999830e-02   1.7379381e-02
 -4.5158837e-02   1.3010258e-02
  7.4156001e-02   1.6878149e-02
  3.2416269e-02   1.7309757e-02
 -3.8384240e-02   3.6236886e-02
  2.5682470e-02   7.7999602e-03
 -1.0187964e-02   1.1023702e-02
 -1.3637893e-02   1.4313338e-02
 -1.8592004e-02   1.3946909e-02
 -3.2729695e-03   1.7383777e-02
  3.5035241e-02   3.0198587e-02
 -3.9994963e-02   1.8659776e-02
 -4.8109861e-03   1.3319309e-02
 -5.2212022e-02   9.7696139e-03
  1.5367707e-02   1.4139079e-02
 -2.0580107e-02   5.1136850e-03
 -1.1683155e-02   6.1211772e-03
  8.4348023e-02   1.3495592e-02
  4.6724584e-02   1.4297472e-02
 -6.6089258e-02   4.3521300e-03
 -2.7202650e-03   1.0357944e-02
 -1.7130766e-02   9.2199249e-03
  2.9983928e-02   1.8699266e-02
 -2.0407662e-03   8.0655534e-03
 -3.9456334e-02   2.3778813e-02
  7.4307076e-03   1.0429442e-02
  2.0473504e-03   7.8926282e-03
  1.4330979e-02   1.2832300e-02
  3.0295888e-02   1.7606508e-02
  6.4847250e-03   7.5135184e-03
 -6.2695509e-03   2.4526354e-02
 -4.3347464e-03   1.0526528e-02
  8.2561508e-02   1.0022045e-02
  3.6891154e-03   1.3127239e-02
  4.3655415e-03   2.0628257e-02
 -1.7896460e-02   2.4727991e-02
  2.7026666e-02   2.5480358e-02
  3.8651869e-01   2.9143824e-03
 -8.2518347e-02   4.1317986e-03
  1.2548510e-02   2.8319790e-03
 -7.6835826e-03   6.9677909e-03
 -5.0836075e-03   4.1727647e-03
 -4.4523757e-02   4.5703901e-03
  3.4594208e-02   1.1023042e-02
 -1.1509855e-02   1.0257627e-02
 -1.6645272e-01   7.4744890e-03
 -1.2021928e-01   8.6244913e-03
 -7.3722661e-03   1.6993713e-02
 -7.9567218e-03   1.4697497e-02
 -8.1802920e-02   1.4159236e-02
 -3.8627956e-02   5.8633410e-03
  8.0796897e-02   1.6982913e-02
 -8.7252399e-03   1.5217032e-02
 -4.9666795e-03   1.3847074e-02
 -5.0983965e-02   1.0526234e-02
  2.0379372e-01   4.2626658e-03
 -2.4552844e-03   1.0382827e-02
 -2.7947430e-02   1.9858925e-02
 -1.6085293e-02   2.1923611e-02
 -2.3692707e-02   1.9378936e-02
  3.0381313e-02   1.1216182e-02
  2.4409007e-02   1.0328060e-02
 -3.9899964e-02   1.6780062e-02
  3.9739772e-03   1.5430253e-02
  4.7776546e-02   1.4951332e-02
 -2.0993171e-02   1.0851409e-02
  4.3126107e-03   8.2094409e-03
  9.4016688e-03   1.9678164e-02
  1.6911470e-03   1.4448295e-03
 -7.2505492e-01   5.7992595e-03
 -1.0784339e-02   3.2363252e-03
 -4.9891271e-02   6.4805206e-03
 -3.7881604e-03   2.7748395e-03
 -9.4171792e-02   9.9292574e-03
 -1.0490452e-03   1.0905708e-02
 -5.7129860e-02   7.9328567e-03
 -2.0216401e-03   4.6223565e-03
  2.1903124e-02   2.4481582e-02
 -1.7143890e-02   1.0391832e-02
 -3.7820820e-02   2.0160222e-02
  1.1328488e-02   1.1902135e-02
  8.9981658e-03   1.7005863e-02
  2.2940269e-02   1.6207051e-02
  3.1661153e-02   2.0810289e-02
 -1.0200588e-01   7.9262387e-03
  3.2865251e-03   8.2068946e-03
 -1.5541161e-02   8.1018331e-03
  5.9000906e-03   1.8978789e-02
  5.1502477e-02   9.1903619e-03
  8.7497450e-02   7.3470436e-03
  4.7735143e-03   1.8489886e-02
 -2.3174128e-02   2.5688084e-02
  8.0557279e-02   2.0389369e-02
  2.1009926e-02   2.6002651e-02
 -2.6174767e-02   1.5262039e-02
  2.1554142e-02   1.2001249e-02
 -8.4863931e-02   1.3937037e-02
  3.6880579e-02   2.2429716e-02
  6.4119488e-02   1.9194238e-02
  4.1994967e-02   2.3961227e-02
 -4.6889894e-02   8.3976332e-03
 -4.8075630e-03   1.7982990e-02
  1.7657934e-02   9.0220226e-03
  6.1523897e-04   1.1313530e-02
 -1.8074924e-02   1.8720381e-02
 -3.4194298e-02   1.2745563e-02
  3.3520877e-02   8.3492771e-03
  4.2758482e-03   1.6921477e-02
  3.3725217e-01   4.1845883e-03
 -1.0706206e-02   1.6901210e-02
  5.4784581e-02   1.4587061e-02
  9.9976582e-04   9.0603400e-03
  1.3658979e-02   1.8163590e-02
 -8.7481298e-02   1.4258290e-02
  2.8491277e-02   1.1663524e-02
  3.9005760e-02   2.0005269e-02
 -3.9517228e-02   1.3018948e-02
 -7.5310902e-03   1.9804608e-02
 -8.0731735e-03   1.9279832e-02
 -1.9888107e-02   2.5412510e-03
 -5.9810977e-02   1.1993762e-02
  3.3038758e-02   1.3962865e-02
  1.7202573e-02   1.5241283e-02
 -1.8196926e-02   1.2284346e-02
  4.7910240e-02   4.8473850e-03
  5.5319665e-04   1.0513100e-02
  1.5167322e-02   1.1256998e-02
  2.6673805e-02   2.3466609e-02
  3.5971466e-01   9.3996647e-04
 -1.0943604e+00   4.5823329e-03
 -1.7024545e-01   1.2214149e-03
 -4.7180124e-02   8.9603448e-03
  9.2100471e-02   3.0764134e-03
 -4.5106422e-02   1.0021330e-02
  2.2017647e-02   1.5219488e-02
 -1.1156373e-01   9.0050530e-03
  2.7819853e-02   8.0173546e-03
  4.9529960e-03   1.0705953e-02
  2.4255305e-03   1.2242078e-02
  1.0172580e-02   1.1704168e-02
  1.1793678e-03   5.0188489e-03
 -3.6685564e-02   1.3516753e-02
 -5.4375630e-02   2.4894677e-02
 -3.3386972e-02   1.6344955e-02
  1.2457568e-02   1.7044846e-02
 -2.4766651e-01   5.3031803e-03
 -6.0612045e-02   6.4996788e-03
 -3.4814738e-02   1.2581575e-02
 -2.6256334e-02   1.5082013e-02
  3.0518542e-03   6.1356784e-03
 -1.4027522e-02   1.1119078e-02
 -1.4796655e-02   1.4124401e-02
 -8.0640530e-03   2.0162987e-02
  1.5482955e-02   1.2698906e-02
 -1.0501062e-02   2.4284361e-02
 -2.8865388e-02   1.5383162e-02
 -2.9173556e-03   8.1798099e-03
 -3.1863518e-02   2.2619963e-02
 -3.2512221e-02   8.4138438e-03
  1.0130314e-02   7.8795827e-04
  1.8506564e-02   7.0047104e-03
 -1.2440211e-02   5.9230258e-03
 -3.5195444e-02   7.2826464e-03
 -3.5000686e-02   1.6775116e-02
 -5.9736529e-03   1.5734436e-02
 -2.0660566e-02   1.8140964e-02
 -3.4605958e-02   1.6868591e-02
 -1.4142744e-02   2.1768285e-02
 -5.4834457e-03   8.2197264e-03
  5.5338796e-03   1.7108016e-02
  4.4845328e-02   1.3208443e-02
  3.3954270e-02   1.7931793e-02
 -1.5134060e-02   2.4662983e-02
  3.6683567e-02   1.1932543e-02
 -3.1737667e-02   1.0419918e-02
  3.6286358e-02   3.2194417e-03
  8.7640315e-02   4.7060368e-03
 -9.1660686e-02   9.2121307e-03
 -2.4627578e-02   1.7828554e-02
  3.3562765e-02   1.5370653e-02
 -2.0670028e-02   1.6325813e-02
  4.3746349e-03   1.2387401e-02
  1.8744927e-02   1.5958291e-02
  8.7814163e-03   1.5922287e-02
  1.1115488e-02   1.5199875e-02
  1.8699279e-02   8.4898258e-03
  9.9639166e-03   2.0995283e-02
  4.2204271e-04   1.5070472e-02
  5.6788619e-03   3.2550443e-02
  4.3781295e-02   4.9160449e-03
 -4.1795131e-02   5.9921280e-03
 -1.0345412e-02   1.5727391e-02
  2.6319405e-02   1.3842617e-02
 -2.9616658e-02   1.4703970e-02
  6.2197670e-02   1.3036611e-02
 -7.7497214e-02   1.3919523e-02
 -4.6895009e-02   1.6059624e-02
 -4.1164223e-02   1.7310055e-02
 -4.1424329e-03   9.0608373e-03
  2.3629125e-04   1.2869911e-02
 -1.4920538e-02   1.6359573e-02
 -4.6602888e-03   1.9818578e-02
  1.7510466e-02   1.1251069e-02
 -2.2005061e-02   5.9623756e-03
 -5.5455756e-03   1.9708568e-02
  1.1644869e-02   3.5888362e-03
 -7.2941007e-03   2.1544533e-02
 -1.2633460e-02   1.1279127e-02
 -9.7195208e-03   1.1465780e-02
  8.1728302e-02   1.3103669e-02
  1.2913601e-02   1.3728902e-02
  3.2256059e-05   1.5497481e-02
 -2.9294221e-02   1.5943345e-02
  1.9106098e-02   1.3211423e-02
 -7.7855918e-03   1.2907261e-02
 -2.7961353e-02   1.3826412e-02
  4.7855515e-02   5.7655708e-03
  1.3509219e-02   2.0403445e-02
 -5.3149000e-02   1.0463389e-02
 -1.7999865e-02   8.4952349e-03
 -2.0066366e-02   1.4351374e-02
 -6.0781660e-03   1.6071249e-02
 -2.8887301e-04   1.4197714e-02
  2.0244424e-03   9.6211676e-03
  1.9891076e-02   8.6579071e-03
 -3.6512829e-02   1.0866252e-02
 -2.2847850e-03   1.9185290e-02
 -2.8011899e-02   1.8634280e-02
  2.7729837e-02   1.6918447e-02
  2.1151893e-03   1.8282883e-02
  1.4318763e-02   1.1121661e-02
  2.2831890e-03   1.2023741e-02
  4.4418171e-02   2.2446156e-02
 -3.2718007e-02   2.0825623e-02
  3.0682625e-02   1.9444652e-02
 -4.2214878e-02   1.7107755e-02
 -2.8135756e-02   8.4953336e-03
  3.3673435e-02   2.1875909e-02
  3.4437656e-02   9.1565568e-03
 -9.5153756e-02   2.6227018e-02
  2.3435056e-02   6.4635854e-03
  1.0376816e-02   1.5665514e-02
  5.4224551e-02   1.3926568e-02
  7.0647979e-01   5.2778474e-03
 -8.6771715e-03   2.1237429e-02
  9.4177742e-03   1.7856717e-02
  4.1870046e-03   1.5773289e-02
  1.3310276e-02   1.5052804e-02
 -1.2306431e-01   6.7732898e-03
 -5.1250789e-02   9.4672348e-03
  8.0780365e-02   3.7354934e-03
 -2.8826222e-02   8.1063537e-03
  3.0489041e-02   3.5750698e-03
  3.4248002e-02   4.2439359e-03
  1.9572796e-02   1.2532516e-02
 -1.6919458e-02   4.1390159e-03
 -1.4412676e-02   9.6315714e-03
  3.6087371e-02   1.8763613e-02
 -1.6047539e-02   2.4500290e-02
  1.5149138e-02   1.8318919e-02
  6.6496539e-03   9.0881139e-03
 -4.9999360e-02   1.1359888e-02
  6.3962571e-02   1.6273448e-02
 -5.1803976e-02   1.2776626e-02
  3.4332573e-02   1.0414934e-02
  1.7519215e-02   5.3641414e-03
 -2.0417394e-02   8.6654313e-03
 -1.1855615e-02   1.2738302e-02
  4.1290126e-03   1.4031678e-02
 -2.5596371e-02   1.6142139e-02
 -7.0608884e-02   6.9172177e-03
  2.3006054e-02   1.4082514e-02
  1.2804559e-02   1.5100827e-02
  3.9355769e-03   1.3096625e-02
  4.9834989e-02   1.8626302e-02
  1.5206310e-02   1.4515526e-02
  7.9892524e-02   1.1221156e-02
  4.2695869e-02   9.9441130e-03
  1.9396750e-02   8.9890752e-03
  2.3520587e-02   1.5434601e-02
 -1.8755006e-02   1.2453321e-02
 -2.0302561e-04   1.1457668e-02
 -1.1575604e-01   9.2503903e-03
 -2.4906224e-02   1.0326452e-02
  2.5332168e-02   1.8905239e-02
 -2.4824400e-02   1.0067349e-02
  6.0848449e-03   7.5039146e-03
 -9.9762483e-04   9.3483701e-03
  7.8518204e-02   1.8791027e-02
  6.5781966e-02   1.6774930e-02
 -2.9116706e-03   1.7358189e-02
 -5.1398221e-02   1.7596509e-02
 -2.9294444e-02   1.6365007e-02
  3.6295269e-02   5.5268696e-03
  1.1281651e-02   1.6200962e-02
  5.0550788e-03   1.7436791e-02
 -3.8677897e-02   1.8410791e-02
  1.0965881e-01   8.4487954e-03
 -3.1734202e-02   1.0632040e-02
  1.7967932e-02   2.3398874e-02
 -2.5580861e-02   1.2723066e-02
 -3.1496119e-02   7.1605514e-03
 -2.5965385e-02   1.9099558e-02
 -2.4318144e-02   7.8925360e-03
  2.8434657e-02   1.0826753e-02
 -4.4086829e-02   1.5654964e-02
 -9.2664771e-03   8.4408140e-03
 -1.7637441e-02   8.4688189e-03
 -9.6547675e-01   8.9167827e-04
  6.7706078e-01   1.6049839e-03
 -1.1937758e-02   1.0298400e-03
  9.2952096e-01   4.2750333e-03
 -4.6048406e-01   1.6456328e-03
  3.1091316e-02   1.3356838e-02
  2.2276275e-02   2.3919692e-02
  1.1938050e-02   1.3213669e-02
 -3.2315344e-02   1.1487421e-02
  1.4099923e-02   8.5229846e-03
 -1.7407848e-02   8.9996886e-03
 -2.3483518e-03   1.1055974e-02
 -2.1255882e-03   7.9925666e-03
 -1.0731797e-01   8.7201567e-03
 -4.0157918e-02   2.1072768e-02
 -1.7163293e-02   8.5309437e-03
  1.5925325e-03   1.1366694e-02
 -3.4976243e-03   5.4481169e-03
  1.0114705e-02   1.5044891e-02
 -1.8512795e-02   6.1663780e-03
 -5.2745747e-03   1.2899860e-02
  1.1170425e-02   2.7403897e-02
 -5.3503759e-02   6.0620997e-03
  2.4076812e-02   1.9977467e-02
  1.0689146e-01   1.1588240e-02
  1.4603439e-02   1.1872801e-02
 -1.9304294e-02   2.3365371e-02
  7.7799973e-03   8.0229854e-03
 -4.4000644e-02   8.0296341e-03
  1.5386747e-02   1.8778441e-02
  5.1527512e-01   4.0831391e-04
 -8.4568977e-02   2.5346730e-04
 -1.3001794e+00   7.9403928e-04
  2.2098857e-01   2.1838290e-03
 -4.2126167e-01   1.0435396e-03
  6.6145107e-02   5.7329759e-03
 -2.1582356e-04   1.9512407e-02
 -5.4912413e-03   5.8432808e-03
 -9.7375242e-03   8.1376880e-03
  9.8225817e-02   8.2913050e-03
  1.5722834e-02   1.1690149e-02
 -3.0829249e-02   9.3810568e-03
 -2.2905938e-01   6.5098996e-03
  3.9034043e-02   3.2850129e-03
 -2.5954971e-02   1.6110796e-02
 -1.8417688e-02   1.4497606e-02
  6.4464286e-03   1.8300498e-02
  4.5858881e-01   5.8036195e-03
  1.5625697e-01   1.1278532e-02
  8.3666155e-03   1.5645137e-02
 -1.0119320e-02   1.4408786e-02
  2.9089769e-02   2.1500869e-02
  1.8031575e-02   7.7974787e-03
  2.2346618e-02   1.3151723e-02
 -2.9687440e-02   1.5806831e-02
 -1.3191399e-02   1.3031532e-02
  7.8357235e-02   2.3602696e-02
  4.8119828e-01   2.1994696e-03
  4.3288883e-02   1.1753029e-02
  4.1629374e-02   2.1333275e-02
 -1.7356919e-02   5.4164301e-03
  1.7921880e-03   8.9629339e-03
 -2.2830656e-01   6.3040461e-03
 -2.6560735e-03   7.8556361e-03
 -1.2711532e-01   1.9471055e-03
  1.3426917e-02   9.2863068e-03
 -2.0136785e-02   7.1506267e-03
  2.9764853e-02   6.6764439e-03
 -5.6281439e-03   2.1284778e-02
  1.3512337e-02   2.8120864e-02
  2.9571563e-02   1.1984872e-02
 -4.5174076e-03   2.2621278e-02
  9.8744626e-05   1.5391777e-02
  3.3835966e-02   1.5794713e-02
  7.9197264e-01   3.4542233e-03
 -1.4091909e-03   7.0631895e-03
 -4.3479446e-02   2.3641480e-02
  2.0845920e-02   4.2139101e-03
  3.9903507e-01   3.2678698e-03
 -6.5909522e-03   1.1219237e-02
 -4.9445271e-02   1.4540019e-02
  9.3675731e-04   3.2629628e-02
 -3.6019597e-02   1.7076049e-02
 -1.8224100e-02   7.1015707e-03
 -8.3962962e-02   6.1473302e-03
 -6.9529623e-02   9.9719465e-03
  9.1198117e-02   1.2119772e-02
 -8.9624450e-03   6.7716390e-03
  8.7126065e-03   2.1602444e-02
 -5.3433585e-03   1.2892047e-02
  9.4637893e-02   5.8023976e-03
 -2.4570594e-02   2.4086967e-02
  2.4907748e-01   9.3829148e-03
  4.4040359e-03   9.3031190e-03
 -2.9018737e-02   3.5096803e-03
 -9.2452541e-03   8.6997887e-03
 -3.3070527e-02   1.2069616e-02
 -7.9580612e-02   1.5869547e-02
  1.3290533e-02   1.3993937e-02
  3.3811972e-02   1.3815996e-02
  6.6158767e-03   1.2437534e-02
  3.2902888e-03   2.2237971e-02
  3.6188453e-03   1.1353908e-02
 -3.8203325e-02   9.1827605e-03
  1.1130818e-02   1.0865275e-02
  3.9817531e-02   2.0881338e-02
  4.1221432e-02   2.2912012e-02
  5.7096062e-03   9.4035435e-03
 -9.7545721e-03   1.6341981e-02
 -3.0906657e-02   8.9241676e-03
 -4.3084942e-02   1.3241139e-02
 -3.9540794e-02   8.6712986e-03
 -1.0682479e-02   1.8151924e-02
 -2.9089330e-02   1.2702264e-02
 -1.1081091e-02   1.3129750e-02
 -6.6773025e-03   5.2621434e-03
 -4.3309711e-02   1.0836218e-02
  8.1638694e-02   1.5254170e-02
 -4.1861795e-02   1.1385757e-02
  1.4589594e-02   1.0197840e-02
 -3.5599642e-02   1.8367957e-02
 -2.9859554e-02   1.8810563e-02
 -7.5266403e-03   1.8176209e-02
 -6.3874848e-02   9.7067906e-03
 -6.3938834e-03   1.4193689e-02
  7.7558439e-03   1.6748151e-02
 -8.3749602e-03   1.4262532e-02
 -3.6776075e-03   1.5845263e-02
 -1.3034736e-02   1.2273778e-02
  3.3016037e-03   1.4812075e-02
 -3.0910123e-02   6.8796193e-03
 -8.8650530e-04   1.1117683e-02
 -9.7232368e-03   1.1334438e-02
 -1.5747190e-02   1.5117197e-02
 -4.6514045e-02   9.5782252e-03
 -6.8891305e-03   4.2278562e-03
 -1.4923714e-02   1.0373777e-02
 -1.8890239e-02   6.6889292e-03
 -3.8399421e-02   1.1860486e-02
  9.8927347e-03   8.6415866e-03
 -7.6864654e-04   1.4125323e-02
  2.8875729e-03   2.5553865e-02
  2.8898750e-02   1.8168680e-02
  7.7056177e-02   1.1071088e-02
 -1.1363694e-02   1.9760206e-02
  8.0494057e-05   2.0004064e-02
  4.2292506e-02   6.9136815e-03
 -4.2994477e-02   1.2465181e-02
 -1.5394561e-02   1.4880371e-02
  4.7748663e-02   1.6082758e-02
  4.2929193e-03   1.2367154e-02
 -9.2391171e-02   1.0472543e-02
 -2.4338560e-02   4.7750873e-03
 -8.0846827e-03   1.2314438e-02
 -3.6467947e-02   7.3667197e-03
  2.8734224e-02   2.9325558e-02
  2.0266902e-02   1.9331809e-02
 -4.5327717e-03   9.1765644e-03
  5.7951562e-02   9.3446914e-03
  2.7513430e-02   3.2354247e-02
 -2.4624510e-02   1.6837429e-02
  3.0803444e-02   2.5474481e-02
 -8.0004783e-04   1.7659679e-02
 -8.6285803e-04   1.1672136e-02
  1.5084332e-02   2.4397198e-02
 -4.2636529e-02   1.4474498e-02
  1.3414321e-02   2.1213977e-02
 -2.5050089e-02   1.7420648e-02
  8.3643153e-02   7.6012602e-03
  4.3253377e-03   1.2900822e-02
 -2.6196253e-04   8.2506426e-03
 -9.2564330e-02   1.3951554e-02
 -1.5625404e-03   1.5274721e-02
 -3.3341464e-02   1.7927665e-02
  6.9446161e-02   1.6792197e-02
  9.9463522e-02   1.2535690e-02
 -1.3773656e-02   1.0986972e-02
 -4.0981732e-02   2.4803212e-02
 -7.5840943e-02   1.0558158e-02
  3.4086924e-02   1.2359669e-02
 -1.7132256e-02   1.3987937e-02
  3.9568692e-02   2.5053699e-02
  6.2562950e-02   4.9463417e-03
 -6.6292599e-02   1.0554336e-02
  1.6366662e-02   1.4831681e-02
  2.3204710e-02   1.7712725e-02
  3.9197154e-02   1.0166599e-02
  1.9973369e-02   1.3734137e-02
  3.8007919e-03   1.4024093e-02
  1.1078120e-02   1.1391727e-02
  3.6187966e-03   1.8805090e-02
  4.5316997e-03   1.1485842e-02
 -2.1498322e-02   2.4365734e-02
  3.9294250e-02   1.8110789e-02
  1.2865044e-03   1.2543851e-02
  1.8531805e-02   1.1366675e-02
  5.7041686e-02   2.4895120e-02
  4.7873501e-02   1.6411996e-02
 -1.7080223e-02   1.6889334e-02
  1.8902175e-02   9.0119131e-03
 -7.7167423e-03   1.4475177e-02
 -2.0989483e-02   2.2974659e-02
 -9.4658090e-03   1.8592207e-02
 -1.9545414e-02   1.1693530e-02
 -1.2729712e-02   3.2637484e-02
 -1.1835784e-02   1.4610566e-02
  5.1080633e-04   6.4707017e-03
 -2.8735448e-02   2.1426441e-02
 -5.7119776e-02   7.5535178e-03
  5.6290988e-02   2.5267847e-02
 -4.1889733e-01   1.4167863e-03
  1.8550361e+00   1.6846295e-03
 -9.3478439e-03   2.4169071e-02
 -9.5148897e-01   3.2407569e-04
  1.2176394e-01   5.8196704e-03
 -5.8246003e-03   2.7859978e-02
  4.9975878e-03   6.5637026e-03
 -5.1370434e-02   1.9266052e-02
 -7.5803414e-02   3.3531713e-03
  2.1985019e-02   6.6064554e-03
  3.7588399e-02   2.1707138e-02
 -1.4146167e-02   7.1298969e-03
  3.0329177e-02   1.3602043e-02
 -3.8221501e-02   9.0004941e-03
  4.0878411e-02   2.4606964e-02
 -6.8099909e-02   1.1557658e-02
  4.3113630e-02   6.8794140e-03
  4.8487522e-03   3.3514216e-03
 -4.0560573e-02   1.6163446e-02
  2.0090155e-02   1.3978398e-02
 -1.3655665e-02   5.8538597e-03
  1.3618239e-02   2.4957405e-02
 -3.9443530e-02   1.3472022e-02
  2.6195113e-02   2.0064267e-03
  3.6409926e-01   9.1933709e-04
 -4.2902199e-03   9.4145741e-03
  3.5862960e-02   1.0799718e-02
 -1.7446788e-02   1.4046249e-02
 -3.2650207e-03   1.1166946e-02
  5.1860968e-03   1.1498325e-02
 -5.1936990e-01   4.8368858e-04
  7.8341907e-01   1.1941154e-03
 -5.3528309e-02   1.3704519e-03
 -7.2520220e-01   6.3216820e-04
  2.5100237e-02   1.5117704e-03
 -1.8776514e-02   5.3687370e-03
  7.5395929e-04   1.9787867e-03