135
Lattice="38.76164111 0.0 0.0 19.38082055 20.17349064 -1.37027803 0.0 0.0 2.74085087" Properties=species:S:1:pos:R:3:forces:R:3 virial="4.359388632987546 -0.12197787248548334 -5.128644405760911 -0.12197787248548334 0.8886050276769631 0.25493677776331214 -5.128644405760911 0.25493677776331214 -16.604641234922553" energy=-1470.48785252 pbc="T T T"
Mo      38.78215648       3.00232418      -0.14498239      -0.02075803       0.00454376       0.00880453
Mo       5.15757532       3.01110712       0.97120533      -0.00664759      -0.00466519      -0.00965243
Mo      41.34941226       3.01405769       1.81445136      -0.00865498       0.00544666      -0.01094038
Mo       3.87031905       0.76909275      -0.02370889       0.01065693      -0.01053703       0.00663610
Mo       1.30412514       0.76606914       0.79656770      -0.00076240       0.00626952      -0.00739669
Mo       6.44147115       0.76479882       1.84686269      -0.00170432      -0.00149878       0.01477771
Mo      38.80884348       7.50981953       0.13092760       0.22345883      -0.14696818      -0.00715457
Mo      43.95529286       7.50436664       1.19020930      -0.00211301      -0.00140147       0.01360900
Mo      41.38188754       7.51986170       2.06531249      -0.06413824      -0.00556254       0.01309850
Mo      42.64313824       5.26227016       0.12321874       0.00182990       0.00606763       0.00996538
Mo      40.07055661       5.25787577       0.93811987      -0.00775364       0.06306209      -0.00932245
Mo       6.45588195       5.24845354       1.99043186       0.01006078       0.00939250       0.00061871
Mo      38.84429003      12.02420312       0.74181781       0.04582847       0.01875112      -0.01208910
Mo      44.01283432      11.99569233       1.47179905       0.02153136       0.00819750       0.00151138
Mo      41.43367794      12.01369818      -0.30688176      -0.01243876      -0.00537710       0.00117279
Mo      42.70176464       9.76293215       0.42844772      -0.01829748       0.01588192      -0.00799026
Mo      40.13169496       9.78067675       1.36862739       0.03586907       0.03970687       0.00448031
Mo      45.27585972       9.74123879      -0.48752019       0.00647378       0.00568334       0.01233372
Mo      38.82541408      16.47044228       0.89575627       0.00736176      -0.01060064      -0.01444716
Mo      44.02429013      16.46670816      -1.11467034      -0.00155678       0.00106808      -0.01192863
Mo      41.43101094      16.47169001      -0.13705532      -0.00113502      -0.00555067      -0.00419228
Mo      42.73018370      14.23974382       0.67812210       0.01420779       0.01705623      -0.00782900
Mo      40.13590292      14.24629113       1.68642997       0.00615193      -0.02411804       0.00990487
Mo      45.31300306      14.22592680      -0.26859542       0.01436145      -0.00009906       0.00671855
Mo      19.44386636       0.75290372       2.26563441       0.00808309       0.00983558      -0.01201327
Mo      24.64295889       0.75609254       0.25674244       0.00614267       0.00843521      -0.01075667
Mo      22.04960606       0.75138506       1.23372625      -0.00065617       0.00402653      -0.01122022
Mo      42.72813961      18.69840743       0.75709049      -0.00459762      -0.00745462      -0.00407053
Mo      40.12712593      18.69840077      -0.98050447      -0.00902374       0.00092155       0.01396263
Mo      45.31654335      18.69832411      -0.19329326       0.00862262      -0.00728180       0.00260773
Mo      19.46496994       5.19900085       2.11143339       0.03060652      -0.01964807      -0.00326346
Mo      24.63255100       5.22740271       0.10301732       0.01855920      -0.01243043       0.00239670
Mo      22.05386461       5.20943014       1.06436663      -0.01908280       0.01403132      -0.00050750
Mo      23.34919183       2.98310550       2.04988003       0.01672659      -0.01183456      -0.00388376
Mo      20.75493798       2.97671817       0.31606654      -0.00050420       0.01924851       0.00941434
Mo      25.93190691       2.99675388       1.10366922       0.01810741       0.00139444      -0.00534950
Mo      19.42937164       9.71398581       1.50213851       0.21851976       0.14797832      -0.00396192
Mo      24.57492678       9.71929830      -0.17866835      -0.00029021      -0.00078644       0.00783268
Mo      22.00194261       9.70398501       0.69590537      -0.05527420       0.00217550       0.01063469
Mo      23.32213252       7.46042757       1.80002714      -0.01946182      -0.00956361      -0.01501944
Mo      20.75250491       7.44303741      -0.00157835       0.03548003      -0.03195675       0.00394723
Mo      25.89561555       7.48219154       0.88435030      -0.00208191      -0.00314612       0.01585362
Mo      19.40246893      14.22202726       1.22604924      -0.01476960      -0.01933045       0.00773393
Mo      24.53897206      14.21360604      -0.39961254       0.00450439       0.00298778      -0.00458289
Mo      21.96955532      14.21058103       0.44388173      -0.01652640       0.00777995      -0.01046302
Mo      23.26305357      11.96173732       1.49433990      -0.00232200      -0.01240130       0.01305192
Mo      20.69109562      11.96639720      -0.43124488      -0.01467702      -0.06002213      -0.01706413
Mo      25.83683701      11.97552308       0.62084974       0.00230489      -0.01011836      -0.00057578
Mo      19.40234702      18.69891156       1.18045987       0.01138146      -0.00103554      -0.01449697
Mo      24.53627231      18.69922163      -0.46986513      -0.00233501       0.00086526       0.00870195
Mo      21.96847251      18.69908283       0.37671647      -0.00114430      -0.00340430      -0.00210017
Mo      23.25195379      16.45577736       1.34642043      -0.00050005       0.00545259       0.00822634
Mo      20.68571744      16.45846507      -0.57385583      -0.00121265      -0.00520016      -0.00249326
Mo      25.82285239      16.45991514       0.47610264       0.00080082      -0.00551243       0.01590649
Mo       7.73246714       2.99858281       0.07666876      -0.01389359      -0.00051972      -0.00504617
Mo      12.90794666       2.97759794       0.86729911      -0.00349612       0.02515273      -0.01114602
Mo      10.31449169       2.98463768       1.87309624      -0.01281151      -0.01652660       0.00758988
Mo      11.61420305       0.75226926      -0.04894600       0.00152264       0.00633724       0.00099646
Mo       9.02183457       0.75746676       0.92584642       0.00245411      -0.00038025       0.01127280
Mo      14.21908941       0.75330235       1.66166334      -0.00690516       0.00889845       0.00817065
Mo       7.76871315       7.48353791       0.29169278      -0.00662096      -0.00625656      -0.00958189
Mo      12.91268391       7.44319840       1.17703214      -0.03446175      -0.04195377       0.00073135
Mo      10.34270997       7.46152319       2.11695462       0.01640887      -0.01578616       0.01146082
Mo      11.61029025       5.21057378       0.11556274       0.01629609       0.00783294      -0.00384389
Mo       9.03165890       5.22904947       1.07596467      -0.02116159      -0.00754996      -0.00234456
Mo      14.19892812       5.19968433       1.81028002      -0.04368855      -0.01572666       0.00869273
Mo      46.58900760      11.97608067       0.55573193      -0.00850367      -0.00897271       0.00020208
Mo      12.97482347      11.96570484       1.60543324       0.00932631      -0.06265137       0.01080318
Mo      49.16370252      11.96170444      -0.31931180      -0.00169199      -0.00382950      -0.00818639
Mo      11.66303302       9.70394627       0.47791461       0.06222266       0.00455790      -0.00781874
Mo      47.85108121       9.72008930       1.35400235       0.00117987       0.00164554      -0.00796520
Mo      14.23620461       9.71313833      -0.33038783      -0.22373503       0.14517239       0.01440184
Mo      46.60549816      16.45934423       0.70298602       0.00117322       0.00179695      -0.01486166
Mo      51.74389151      16.45750744      -0.99039168      -0.00033375      -0.00462592       0.00780741
Mo      49.17727413      16.45481811      -0.16876235      -0.01208697       0.01036292      -0.00824546
Mo      50.45876131      14.20986466       0.73148895       0.00803378      -0.00644517       0.01262374
Mo      47.88846875      14.21313358       1.57613515       0.00817937       0.00536728       0.00965637
Mo      14.26475856      14.22137788      -0.05069237       0.02013205      -0.00553913      -0.00962044
Mo      27.22415278       0.76321338       2.07457628       0.00027397       0.00618135      -0.01709667
Mo      32.36253333       0.76504937       0.38049994      -0.00236648       0.00474033       0.00393141
Mo      29.79592661       0.76745607       1.20265901      -0.00261825      -0.00368854      -0.00941026
Mo      50.46095464      18.69815223       0.80187737      -0.00011012       0.00151673      -0.00205820
Mo      47.89275133      18.69805984      -1.09100807      -0.00195861      -0.00285214      -0.01160139
Mo      53.02740166      18.69827246      -0.00299648      -0.01452915       0.00012961       0.01275303
Mo      27.20819674       5.24683603       1.92782312      -0.00021429       0.00907971       0.00018956
Mo      32.35440036       5.25669603       0.23657483       0.01706303       0.06064214       0.01711798
Mo      29.78224860       5.26080960       1.05290455       0.00385540       0.01294831      -0.01159593
Mo      31.07712715       3.01242303       2.10360666       0.01662664      -0.00795605       0.01020402
Mo      28.50716096       3.00913758       0.20747757      -0.00345821      -0.00357909       0.00663100
Mo      33.64460775       3.00138148       1.32013092       0.01277023       0.01956851      -0.00726885
Mo      27.14950561       9.74002132       1.66379307       0.00030697       0.00209610      -0.01276742
Mo      32.29193210       9.77960917      -0.18936725      -0.03223017       0.03168596      -0.00270000
Mo      29.72283514       9.76183411       0.74903885       0.01554311       0.00931045       0.01661543
Mo      31.04322835       7.51866218       1.85087935       0.05500623      -0.00150855      -0.00638369
Mo      28.47019786       7.50302349      -0.01481122       0.00030426       0.00071322      -0.00274510
Mo      33.61612589       7.50943341       1.04309534      -0.21891450      -0.14365992       0.00959337
Mo      27.11350127      14.22585821       1.44696437      -0.01693381      -0.00077331       0.00704462
Mo      32.28857767      14.24639482      -0.50139997       0.00340453      -0.01930786      -0.01132665
Mo      29.69532678      14.23974302       0.50327697      -0.01491179       0.01181587       0.00196818
Mo      30.99014254      12.01303246       1.48846126       0.02149106      -0.01394993      -0.00371134
Mo      28.41209106      11.99487753      -0.29317186      -0.01666515       0.01241763      -0.00505961
Mo      33.57795711      12.02380208       0.44368154      -0.02790537       0.01896925      -0.00466048
Mo      27.11171300      18.69912822       1.37498214      -0.01279765       0.00386743      -0.00389108
Mo      32.29918401      18.69878870      -0.57324619       0.00625651      -0.00047147      -0.01940447
Mo      29.69910817      18.69901424       0.42716734       0.00078717       0.00350453       0.00087306
Mo      30.99548351      16.47199644       1.32188856       0.00077630      -0.00375980       0.00791569
Mo      28.40312782      16.46708057      -0.44469171      -0.00603430      -0.00746242       0.01001616
Mo      33.60046464      16.47066419       0.29221888      -0.00709474      -0.01127098       0.00750880
Mo      15.51818639       2.98090337       2.52427388       0.04035211       0.05325340       0.00277290
Mo      18.14413931       2.98068287       1.40057229      -0.03230404       0.04977716      -0.01733290
Mo      16.83132633       0.75561948       0.59357246      -0.00347879      -0.00665698       0.00103572
Mo      15.49629129       7.43329019       0.12427587       0.06970590       0.05312511       0.00145563
Mo      18.16911363       7.43316773       1.05271845      -0.07987985       0.03680076       0.00127970
Mo      16.83169049       5.20089756       0.59089020       0.00696715      -0.24279224       0.00704016
Mo      15.54546334      11.99105364       0.89948466       0.00725839       0.04417103      -0.00602183
Mo      18.12109183      11.99136230       0.27537867      -0.01031324       0.04394761       0.00047394
Mo      16.83313417       9.75104149       1.95731987      -0.00998925      -0.10297106       0.00176684
Mo      54.31110678      16.46393512       0.97019321       0.00289412       0.02357490       0.00047575
Mo      18.11842813      16.46420363       0.20606917      -0.00220206       0.01207492      -0.00239392
Mo      16.83367218      14.23108960      -0.78274952      -0.00252459      -0.00954698       0.00048773
Mo      34.92975985       0.75952063       2.34040213       0.00201953      -0.01292923       0.00444431
Mo      37.49870040       0.75968201       1.57620461      -0.00337768      -0.02260064       0.00006299
Mo      55.59577610      18.69863539      -0.78172233      -0.00237015      -0.00036852      -0.00279277
Mo      34.92446753       5.23210192       2.26913827       0.01362870      -0.04084796      -0.00028016
Mo      37.49992159       5.23242348       1.64323543      -0.00588766      -0.04477482       0.01285204
Mo      36.21341632       2.99258321       0.58696094       0.00169142       0.01003477       0.00126549
Mo      34.87467374       9.78961482       1.49994560       0.07722413      -0.03771876      -0.00243158
Mo      37.54752495       9.79031484      -0.31719500      -0.06835673      -0.05447424       0.00137704
Mo      36.21184919       7.47239852       0.58363007       0.00439778       0.10271602       0.00427374
Mo      34.89865867      14.24277731       1.15618836       0.03525463      -0.04918159       0.01796280
Mo      37.52489164      14.24262198       0.03165981      -0.03860758      -0.05242664      -0.00124508
Mo      36.21021112      12.02264956      -0.77578824      -0.00218871       0.24567307      -0.00721272
Mo      34.90763121      18.69859262       1.12477867      -0.01309829      -0.00925392       0.00831011
Mo      37.51818433      18.69848045       0.06436795       0.01005122       0.00852100      -0.01606240
Mo      36.21284672      16.46800633      -0.77576572       0.00266082       0.00481192      -0.00712990
135
Lattice="38.76164111 0.0 0.0 19.38082055 20.17349064 -1.37027803 0.0 0.0 2.74085087" Properties=species:S:1:pos:R:3:forces:R:3 virial="4.26374858485801 -0.10530451810905289 -4.896799995263175 -0.10530451810905289 0.8646452164755947 0.21487735104999406 -4.896799995263175 0.21487735104999406 -16.650584929570307" energy=-1470.47335465 pbc="T T T"
Mo      38.78419186       3.00017167      -0.16947035      -0.02379872       0.01214809       0.02288545
Mo       5.15931804       3.01287109       0.96253962      -0.00923574      -0.00354275      -0.00440503
Mo      41.35169532       3.01379987       1.79692370      -0.01604816       0.00789879       0.00034883
Mo       3.87294593       0.76918595      -0.03708320       0.00786149      -0.01101103       0.01170729
Mo       1.30692897       0.76517566       0.77575072      -0.00540296       0.00405358       0.00070874
Mo       6.44283265       0.76580487       1.84267784      -0.00025371      -0.00044498       0.01558465
Mo      38.80975632       7.50677616       0.11734940       0.24596877      -0.16307215      -0.00449121
Mo      43.95580180       7.50818669       1.18981149      -0.00091825      -0.00077659       0.01883058
Mo      41.38224066       7.52251169       2.06268603      -0.05695780      -0.01952332       0.01344718
Mo      42.64395514       5.26437204       0.11346354      -0.00055052       0.00755984       0.01865231
Mo      40.07170027       5.25577793       0.91907096      -0.00175466       0.06870437       0.00756096
Mo       6.45654904       5.25199883       1.98771620       0.01224918       0.00716229       0.00250487
Mo      38.84222947      12.02730137       0.77981680       0.03361610       0.01585124      -0.05184074
Mo      44.01477686      11.99882144       1.48306316       0.01444867       0.00753738      -0.00121235
Mo      41.43443553      12.01636895      -0.28470287      -0.00774947      -0.01095455      -0.00251169
Mo      42.70317459       9.76676491       0.43803460      -0.02708228       0.02001911      -0.00736419
Mo      40.13159340       9.78376773       1.38902650       0.06404825       0.04823957      -0.01457183
Mo      45.27762589       9.74521115      -0.48305714       0.00850173       0.00491231       0.01414902
Mo      38.82086017      16.47074226       0.92318719       0.01034394      -0.00813285      -0.01951516
Mo      44.02332535      16.46761678      -1.10282150      -0.00237354       0.00307626      -0.01536180
Mo      41.42822514      16.47202933      -0.11588907      -0.00054485      -0.00547576      -0.00654042
Mo      42.73012343      14.24149105       0.69605634       0.01211837       0.01741129      -0.01554751
Mo      40.13353749      14.24745938       1.71500317       0.00499091      -0.02103974      -0.00344981
Mo      45.31430545      14.22836658      -0.26075600       0.01187130      -0.00130016       0.00324271
Mo      19.44048790       0.75253777       2.29329296       0.00717911       0.00942937      -0.01815149
Mo      24.64267612       0.75513935       0.26733032       0.00517719       0.00499929      -0.00871837
Mo      22.04774240       0.75094003       1.25421734      -0.00289464       0.00610394      -0.01240944
Mo      42.72572030      18.69813044       0.77256170      -0.00136463      -0.00602498      -0.00126707
Mo      40.12317049      18.69827347      -0.95730211      -0.00660885       0.00337997       0.01278597
Mo      45.31587685      18.69806730      -0.18740423       0.00744998      -0.00336024       0.00220479
Mo      19.46182890       5.19617636       2.14964625       0.02065028      -0.01926832      -0.04501354
Mo      24.63405437       5.22442369       0.11255035       0.01398106      -0.01267580       0.00184699
Mo      22.05392624       5.20698027       1.08543781      -0.01320300       0.01683895      -0.00286110
Mo      23.34959398       2.98157534       2.06615150       0.01219931      -0.01215124      -0.00914863
Mo      20.75320669       2.97580573       0.34414341      -0.00501865       0.01452115      -0.00121673
Mo      25.93353761       2.99456586       1.10947745       0.01358179       0.00244543      -0.00392301
Mo      19.42960324       9.71662471       1.48839013       0.24164894       0.16232906      -0.00350936
Mo      24.57539405       9.71552324      -0.18010728      -0.00079482      -0.00179061       0.01676689
Mo      22.00200851       9.70111472       0.69272133      -0.05065931       0.01425748       0.01203656
Mo      23.32265037       7.45674631       1.80858418      -0.02483076      -0.01303439      -0.01528096
Mo      20.75120271       7.43971908       0.01846622       0.06639647      -0.03702314      -0.01745697
Mo      25.89688461       7.47823027       0.88767054       0.00026280      -0.00073534       0.01552598
Mo      19.40376473      14.22340794       1.20118937      -0.01788288      -0.02331704       0.02151147
Mo      24.54041652      14.21114185      -0.40720320       0.00116736       0.00611083      -0.00308175
Mo      21.97122711      14.21000084       0.42703081      -0.02204326       0.00554847      -0.00178194
Mo      23.26364469      11.95943311       1.48449829      -0.00662594      -0.01668421       0.02105494
Mo      20.69145746      11.96781439      -0.45087176      -0.00901960      -0.06410301       0.00113956
Mo      25.83771787      11.97190698       0.61801539       0.00432869      -0.01079026       0.00192205
Mo      19.40460934      18.69857406       1.15804748       0.01018356      -0.00066988      -0.00665637
Mo      24.53774545      18.69882481      -0.47832295      -0.00291666       0.00146864       0.00647089
Mo      21.97091740      18.69870377       0.35965049       0.00155778      -0.00303307       0.00106465
Mo      23.25390544      16.45481831       1.33381786      -0.00011480       0.00701481       0.01110420
Mo      20.68793538      16.45857401      -0.59434199      -0.00129574      -0.00341527       0.00388227
Mo      25.82370805      16.45839346       0.47279241       0.00322113      -0.00865217       0.01292093
Mo       7.73320827       3.00106697       0.07674870      -0.01256361      -0.00117326      -0.00488864
Mo      12.90646073       2.97919951       0.88571179      -0.00477733       0.02102365      -0.01376934
Mo      10.31432366       2.98696994       1.88159886      -0.01769497      -0.01571239       0.00624416
Mo      11.61235102       0.75335581      -0.03547392       0.00032600       0.00303115       0.00236750
Mo       9.02161111       0.75873023       0.93054840       0.00293043       0.00200976       0.01121297
Mo      14.21553109       0.75343348       1.68399417      -0.00706448       0.00775558       0.00399588
Mo       7.76949362       7.48758694       0.29352714      -0.00276456      -0.00592061      -0.00888667
Mo      12.91399251       7.44597669       1.18510879      -0.02369937      -0.04458869      -0.00089884
Mo      10.34373405       7.46506404       2.12167045       0.01255456      -0.01189938       0.00627042
Mo      11.61052050       5.21374707       0.12676761       0.02238515       0.00834173      -0.00364717
Mo       9.03211357       5.23245959       1.07979435      -0.02042282      -0.00736277      -0.00063303
Mo      14.19756836       5.20191390       1.83357420      -0.04101060      -0.00836826      -0.01241721
Mo      46.59132884      11.97938247       0.55915937      -0.01015760      -0.00761435      -0.00125994
Mo      12.97637045      11.96553539       1.59265629       0.01405753      -0.05935327       0.01658472
Mo      49.16572936      11.96387148      -0.32274752      -0.00822261      -0.00174948      -0.00822331
Mo      11.66497924       9.70647442       0.47649531       0.05817241      -0.00272858      -0.01203777
Mo      47.85285204       9.72355168       1.35573200      -0.00096519       0.00282768      -0.00614935
Mo      14.23777348       9.71178045      -0.34122841      -0.20111141       0.14370051       0.02167801
Mo      46.60602396      16.46059237       0.70500808       0.00287159       0.00081945      -0.01367500
Mo      51.74532763      16.45775073      -1.00579221      -0.00058296      -0.00623010       0.01005693
Mo      49.17858195      16.45573560      -0.17596448      -0.01213881       0.00679528      -0.00476318
Mo      50.46044919      14.21053463       0.72143059       0.00699029      -0.00254172       0.01284501
Mo      47.89033764      14.21530041       1.57479822       0.00826429       0.00494383       0.01048545
Mo      14.26591540      14.22124332      -0.07026162       0.01924045      -0.00172226      -0.00734276
Mo      27.22522124       0.76213955       2.07523143       0.00015191       0.00629251      -0.01364811
Mo      32.36433207       0.76534491       0.36454976      -0.00165645       0.00431840       0.00765619
Mo      29.79767050       0.76715064       1.19432781      -0.00397948      -0.00121360      -0.00402348
Mo      50.46246033      18.69821941       0.78963532       0.00177012       0.00344506       0.00119901
Mo      47.89365525      18.69811350      -1.09479620      -0.00149043      -0.00186675      -0.00773861
Mo      53.02875231      18.69832915      -0.02202280      -0.01122236      -0.00098643       0.01898908
Mo      27.21036991       5.24377511       1.92970437       0.00091147       0.00931162      -0.00042410
Mo      32.35673924       5.25779589       0.22253431       0.01993342       0.05600805       0.02448789
Mo      29.78458438       5.25933492       1.04794152      -0.00055978       0.01217366      -0.01143271
Mo      31.07934587       3.01259088       2.09191809       0.01457343      -0.01203141       0.01543805
Mo      28.50937057       3.00767036       0.20433414      -0.00470422      -0.00443887       0.00875164
Mo      33.64636928       3.00203288       1.30028614       0.01156564       0.01397859      -0.00404081
Mo      27.15048724       9.73607720       1.66460413       0.00308756       0.00222973      -0.01141981
Mo      32.29459561       9.77757709      -0.18461360      -0.02553828       0.03408164       0.00235996
Mo      29.72449511       9.75851658       0.75199630       0.01175947       0.00916704       0.01306558
Mo      31.04546296       7.51693977       1.84743642       0.05043603       0.00394337      -0.01129402
Mo      28.47186965       7.49983003      -0.01421075      -0.00052808      -0.00019473      -0.00437721
Mo      33.61814886       7.51169486       1.02964806      -0.19494747      -0.14510431       0.02216532
Mo      27.11413987      14.22302888       1.44795260      -0.01621220      -0.00012897       0.00346549
Mo      32.28691925      14.24463428      -0.48399737       0.00216205      -0.01635358      -0.01507460
Mo      29.69501572      14.23703957       0.51198698      -0.01864029       0.01500848      -0.00342876
Mo      30.99121682      12.00997920       1.49803579       0.02483985      -0.01626313      -0.00200884
Mo      28.41304673      11.99138489      -0.28978645      -0.01894106       0.00985305      -0.00516458
Mo      33.57809704      12.02171008       0.46385240      -0.03125573       0.01007262      -0.01974569
Mo      27.11164730      18.69890531       1.37566328      -0.01388866       0.00523856      -0.00698916
Mo      32.29541328      18.69877257      -0.55572130       0.00708914       0.00071357      -0.01916543
Mo      29.69723501      18.69888211       0.43646552       0.00425864       0.00292510       0.00101441
Mo      30.99292446      16.47074649       1.33549055       0.00128670      -0.00235239       0.00644651
Mo      28.40236286      16.46550683      -0.43931070      -0.00232663      -0.01226179       0.00851159
Mo      33.59595763      16.47042795       0.31401214      -0.00296203      -0.00911351       0.00352313
Mo      15.51456276       2.98082086      -0.18677241       0.03270949       0.05280746      -0.00362905
Mo      18.13980208       2.97979463       1.43573352      -0.03530708       0.05474456      -0.03393135
Mo      16.82709763       0.75504312       0.62184207      -0.00605075      -0.00410752      -0.00242983
Mo      15.49610659       7.43560671       0.14455981       0.06503409       0.05116837      -0.00563889
Mo      18.16385018       7.42570153       1.11062084      -0.09893957       0.00122078      -0.03563218
Mo      16.82432442       5.20007791       0.63319382       0.01868379      -0.22702462      -0.02753583
Mo      15.54571219      11.99146316       0.87337378       0.00469160       0.02859844       0.02523317
Mo      18.12054064      11.99361446       0.24489820      -0.00644148       0.06062074       0.03409644
Mo      16.82791394       9.75291581       1.91280793      -0.04112124      -0.10152732       0.03094336
Mo      54.31247177      16.46401157       0.94843512       0.00421949       0.02778141       0.00735498
Mo      18.12018403      16.46478220       0.18210561      -0.00311788       0.00795452       0.00229603
Mo      16.83472242      14.23191893      -0.80869009       0.00047317      -0.00886783       0.00962314
Mo      34.93143648       0.75928520       2.31879015       0.00364150      -0.01559465       0.00784970
Mo      37.50078985       0.75873527       1.55237870      -0.00392007      -0.02050430       0.00756012
Mo      55.59729478      18.69844495      -0.80482288      -0.00265747       0.00158278       0.00469647
Mo      34.92600307       5.23192944       2.24410771       0.00793124      -0.02712370       0.02578083
Mo      37.50078229       5.22983381       1.61526749      -0.00531769      -0.06031079       0.03870872
Mo      36.21513250       2.99149162       0.56179478       0.00438654       0.00976043       0.01085796
Mo      34.87662287       9.78788091       1.51570056       0.07010475      -0.03523214      -0.00681360
Mo      37.54413486       9.79801304      -0.25837343      -0.09809697      -0.01688141      -0.03945884
Mo      36.20820482       7.47049979       0.54270595      -0.02171874       0.10103945       0.02781971
Mo      34.89485983      14.24284166       1.18419647       0.03194232      -0.04870378       0.01094984
Mo      37.52004256      14.24369520       0.06577248      -0.03766643      -0.05729747      -0.01657354
Mo      36.20471724      12.02351037      -0.73663807       0.00493788       0.22513052      -0.03346611
Mo      34.90268271      18.69861985       1.14873614      -0.01188490      -0.00973199       0.00897379
Mo      37.51331489      18.69844797       0.09075265       0.01061418       0.00890420      -0.01386850
Mo      36.20744819      16.46854355      -0.74823391       0.00622165       0.00384012      -0.00858560
135
Lattice="38.76164111 0.0 0.0 19.38082055 20.17349064 -1.37027803 0.0 0.0 2.74085087" Properties=species:S:1:pos:R:3:forces:R:3 virial="4.133068515771803 -0.13516275009443773 -5.053942174268163 -0.13516275009443773 1.1797353371459105 0.21794763652855895 -5.053942174268163 0.21794763652855895 -16.724288020715026" energy=-1470.44088064 pbc="T T T"
Mo      38.78617994       2.99760601      -0.19037741      -0.02641084       0.01788326       0.02640077
Mo       5.16104100       3.01379987       0.95499571      -0.01148607      -0.00119615      -0.00410217
Mo      41.35398711       3.01247266       1.78155995      -0.02236737       0.01134350       0.00547008
Mo       3.87559160       0.76896021      -0.04754376       0.00766468      -0.01413112       0.01301129
Mo       1.30960042       0.76402052       0.76012321      -0.00742031      -0.00142072       0.00399891