96
Lattice="5.86289738 -0.0 0.0 0.0 10.15483615 -0.0 -0.0 -0.0 28.72221401" Properties=species:S:1:pos:R:3:forces:R:3 virial="3.346620885594109 -0.0 -0.0 -0.0 -4.341591391610201 1.5546693919854786 -0.0 1.5546693919854786 1.3328213313932096" energy=-260.90551986 pbc="T T T"
Ag       0.00000000       1.69247273      27.52545500       0.00000000       0.00000000       0.00000000
Ag       0.00000000       1.69247273      20.34490149       0.00000000       0.00000000       0.00000000
Ag       0.00000000       0.00000000      22.73841952       0.00000000       0.00000000       0.00000000
Ag       1.46572434       0.84623631      25.13193726      -0.00000000      -0.00000000       0.00000000
Ag       2.93144869       0.00000000      22.73841952      -0.00000000       0.00000000       0.00000000
Ag       1.46572434       2.53870904      22.73841952      -0.00000000      -0.00000000       0.00000000
Ag       4.39717303       0.84623631      25.13193726      -0.00000000       0.00000000      -0.00000000
Ag       0.00000000       5.07741807      22.73841952      -0.00000000       0.00000000       0.00000000
Ag       0.00000000       3.38494535      25.13193726      -0.00000000       0.00000000      -0.00000000
Ag       1.46572434       4.23118176      27.52545500       0.00000000       0.00000000      -0.00000000
Ag       2.93144869       3.38494535      25.13193726      -0.00000000      -0.00000000       0.00000000
Ag       1.46572434       5.92365439      25.13193726      -0.00000000       0.00000000      -0.00000000
Ag       2.93144869       1.69247273      27.52545500      -0.00000000      -0.00000000      -0.00000000
Ag       4.39717303       4.23118176      27.52545500      -0.00000000      -0.00000000       0.00000000
Ag       0.00000000       8.46236342      25.13193726      -0.00000000      -0.00000000       0.00000000
Ag       0.00000000       6.76989080      27.52545500      -0.00000000      -0.00000000       0.00000000
Ag       2.93144869       6.76989080      27.52545500      -0.00000000       0.00000000      -0.00000000
Ag       1.46572434       9.30859984      27.52545500      -0.00000000      -0.00000000       0.00000000
Ag       0.00000000       1.69247273      13.16434799      -0.00000000      -0.00000000      -0.00000000
Ag       0.00000000       0.00000000      15.55786602       0.00000000      -0.00000000      -0.00000000
Ag       1.46572434       0.84623631      17.95138376      -0.00000000      -0.00000000      -0.00000000
Ag       2.93144869       0.00000000      15.55786602       0.00000000       0.00000000       0.00000000
Ag       1.46572434       2.53870904      15.55786602       0.00000000      -0.00000000      -0.00000000
Ag       4.39717303       0.84623631      17.95138376       0.00000000      -0.00000000       0.00000000
Ag       0.00000000       5.07741807      15.55786602       0.00000000       0.00000000      -0.00000000
Ag       0.00000000       3.38494535      17.95138376       0.00000000      -0.00000000      -0.00000000
Ag       1.46572434       4.23118176      20.34490149       0.00000000       0.00000000      -0.00000000
Ag       2.93144869       3.38494535      17.95138376      -0.00000000      -0.00000000      -0.00000000
Ag       1.46572434       5.92365439      17.95138376       0.00000000      -0.00000000       0.00000000
Ag       2.93144869       1.69247273      20.34490149      -0.00000000      -0.00000000       0.00000000
Ag       4.39717303       2.53870904      22.73841952      -0.00000000       0.00000000       0.00000000
Ag       4.39717303       4.23118176      20.34490149      -0.00000000      -0.00000000       0.00000000
Ag       0.00000000       8.46236342      17.95138376      -0.00000000      -0.00000000      -0.00000000
Ag       0.00000000       6.76989080      20.34490149      -0.00000000      -0.00000000       0.00000000
Ag       1.46572434       7.61612711      22.73841952      -0.00000000       0.00000000       0.00000000
Ag       2.93144869       6.76989080      20.34490149      -0.00000000      -0.00000000       0.00000000
Ag       1.46572434       9.30859984      20.34490149      -0.00000000      -0.00000000       0.00000000
Ag       2.93144869       5.07741807      22.73841952      -0.00000000      -0.00000000       0.00000000
Ag       4.39717303       5.92365439      25.13193726      -0.00000000      -0.00000000      -0.00000000
Ag       4.39717303       7.61612711      22.73841952      -0.00000000      -0.00000000       0.00000000
Ag       2.93144869       8.46236342      25.13193726       0.00000000       0.00000000       0.00000000
Ag       4.39717303       9.30859984      27.52545500      -0.00000000       0.00000000       0.00000000
Ag       0.00000000       1.69247273       5.98379449       0.00000000       0.00000000       0.00000000
Ag       0.00000000       0.00000000       8.37731252       0.00000000       0.00000000      -0.00000000
Ag       1.46572434       0.84623631      10.77083025       0.00000000       0.00000000      -0.00000000
Ag       2.93144869       0.00000000       8.37731252      -0.00000000      -0.00000000      -0.00000000
Ag       1.46572434       2.53870904       8.37731252       0.00000000       0.00000000      -0.00000000
Ag       4.39717303       0.84623631      10.77083025       0.00000000      -0.00000000      -0.00000000
Ag       0.00000000       5.07741807       8.37731252      -0.00000000      -0.00000000      -0.00000000
Ag       0.00000000       3.38494535      10.77083025       0.00000000       0.00000000      -0.00000000
Ag       1.46572434       4.23118176      13.16434799       0.00000000      -0.00000000       0.00000000
Ag       2.93144869       3.38494535      10.77083025       0.00000000       0.00000000      -0.00000000
Ag       1.46572434       5.92365439      10.77083025       0.00000000      -0.00000000      -0.00000000
Ag       2.93144869       1.69247273      13.16434799       0.00000000       0.00000000      -0.00000000
Ag       4.39717303       2.53870904      15.55786602       0.00000000       0.00000000      -0.00000000
Ag       4.39717303       4.23118176      13.16434799       0.00000000       0.00000000      -0.00000000
Ag       0.00000000       8.46236342      10.77083025       0.00000000       0.00000000      -0.00000000
Ag       0.00000000       6.76989080      13.16434799       0.00000000       0.00000000      -0.00000000
Ag       1.46572434       7.61612711      15.55786602       0.00000000       0.00000000      -0.00000000
Ag       2.93144869       6.76989080      13.16434799      -0.00000000      -0.00000000       0.00000000
Ag       1.46572434       9.30859984      13.16434799       0.00000000       0.00000000       0.00000000
Ag       2.93144869       5.07741807      15.55786602       0.00000000      -0.00000000      -0.00000000
Ag       4.39717303       5.92365439      17.95138376      -0.00000000      -0.00000000       0.00000000
Ag       4.39717303       7.61612711      15.55786602       0.00000000      -0.00000000       0.00000000
Ag       2.93144869       8.46236342      17.95138376       0.00000000       0.00000000       0.00000000
Ag       4.39717303       9.30859984      20.34490149       0.00000000      -0.00000000       0.00000000
Ag       0.00000000       0.00000000       1.19675901       0.00000000       0.00000000       0.00000000
Ag       1.46572434       0.84623631       3.59027675      -0.00000000      -0.00000000       0.00000000
Ag       2.93144869       0.00000000       1.19675901      -0.00000000      -0.00000000      -0.00000000
Ag       1.46572434       2.53870904       1.19675901       0.00000000       0.00000000       0.00000000
Ag       4.39717303       0.84623631       3.59027675      -0.00000000      -0.00000000      -0.00000000
Ag       0.00000000       5.07741807       1.19675901       0.00000000      -0.00000000      -0.00000000
Ag       0.00000000       3.38494535       3.59027675       0.00000000      -0.00000000      -0.00000000
Ag       1.46572434       4.23118176       5.98379449       0.00000000       0.00000000       0.00000000
Ag       2.93144869       3.38494535       3.59027675       0.00000000      -0.00000000       0.00000000
Ag       1.46572434       5.92365439       3.59027675      -0.00000000      -0.00000000      -0.00000000
Ag       2.93144869       1.69247273       5.98379449       0.00000000      -0.00000000       0.00000000
Ag       4.39717303       2.53870904       8.37731252      -0.00000000      -0.00000000      -0.00000000
Ag       4.39717303       4.23118176       5.98379449      -0.00000000      -0.00000000       0.00000000
Ag       0.00000000       8.46236342       3.59027675       0.00000000       0.00000000      -0.00000000
Ag       0.00000000       6.76989080       5.98379449       0.00000000      -0.00000000       0.00000000
Ag       1.46572434       7.61612711       8.37731252       0.00000000      -0.00000000       0.00000000
Ag       2.93144869       6.76989080       5.98379449      -0.00000000       0.00000000       0.00000000
Ag       1.46572434       9.30859984       5.98379449       0.00000000      -0.00000000       0.00000000
Ag       2.93144869       5.07741807       8.37731252      -0.00000000       0.00000000      -0.00000000
Ag       4.39717303       5.92365439      10.77083025       0.00000000       0.00000000      -0.00000000
Ag       4.39717303       7.61612711       8.37731252       0.00000000       0.00000000      -0.00000000
Ag       2.93144869       8.46236342      10.77083025      -0.00000000      -0.00000000      -0.00000000
Ag       4.39717303       9.30859984      13.16434799       0.00000000      -0.00000000       0.00000000
Ag       4.39717303       2.53870904       1.19675901      -0.00000000       0.00000000      -0.00000000
Ag       1.46572434       7.61612711       1.19675901      -0.00000000      -0.00000000      -0.00000000
Ag       2.93144869       5.07741807       1.19675901       0.00000000       0.00000000       0.00000000
Ag       4.39717303       5.92365439       3.59027675       0.00000000       0.00000000       0.00000000
Ag       4.39717303       7.61612711       1.19675901       0.00000000       0.00000000       0.00000000
Ag       2.93144869       8.46236342       3.59027675      -0.00000000      -0.00000000      -0.00000000
Ag       4.39717303       9.30859984       5.98379449      -0.00000000       0.00000000      -0.00000000
96
Lattice="5.86289738 -0.0 0.0 0.0 10.15483615 -0.0 -0.0 -0.0 28.72221401" Properties=species:S:1:pos:R:3:forces:R:3 virial="3.4919513723208815 -0.0 -0.0 -0.0 -3.614595858798727 3.4754738598099193 -0.0 3.4754738598099193 4.221357959730869" energy=-260.59833161 pbc="T T T"
Ag       0.29330792       1.69247273      27.51275346      -0.12295766      -0.04189352       0.00503535
Ag       0.29330792       1.69247273      20.34581802      -0.00072537       0.00000867       0.00546629
Ag       0.29330792       0.00000000      22.73750299      -0.00072537      -0.00000867      -0.00546629
Ag       1.75903226       0.84623631      25.12619138       0.00324385      -0.00037727      -0.00261490
Ag       3.22475661       0.00000000      22.73750299      -0.00072537      -0.00000867      -0.00546629
Ag       1.75903226       2.53870904      22.73750299      -0.00072537      -0.00000867      -0.00546629
Ag       4.69048095       0.84623631      25.12619138       0.00324385      -0.00037727      -0.00261490
Ag       0.29330792       5.07741807      22.73750299      -0.00072537      -0.00000867      -0.00546629
Ag       0.29330792       3.38494535      25.12619138       0.00324385      -0.00037727      -0.00261490
Ag       1.75903226       4.23118176      27.51275346      -0.12295766      -0.04189352       0.00503535
Ag       3.22475661       3.38494535      25.12619138       0.00324385      -0.00037727      -0.00261490
Ag       1.75903226       5.92365439      25.12619138       0.00324385      -0.00037727      -0.00261490
Ag       3.22475661       1.69247273      27.51275346      -0.12295766      -0.04189352       0.00503535
Ag       4.69048095       4.23118176      27.51275346      -0.12295766      -0.04189352       0.00503535
Ag       0.29330792       8.46236342      25.12619138       0.00324385      -0.00037727      -0.00261490
Ag       0.29330792       6.76989080      27.51275346      -0.12295766      -0.04189352       0.00503535
Ag       3.22475661       6.76989080      27.51275346      -0.12295766      -0.04189352       0.00503535
Ag       1.75903226       9.30859984      27.51275346      -0.12295766      -0.04189352       0.00503535
Ag       0.00000000       1.69247273      13.15164645       0.12295766      -0.04189352       0.00503535
Ag       0.29330792       0.00000000      15.57056784      -0.12295766       0.04189352      -0.00503535
Ag       1.75903226       0.84623631      17.95712964       0.00324385       0.00037727       0.00261490
Ag       3.22475661       0.00000000      15.57056784      -0.12295766       0.04189352      -0.00503535
Ag       1.75903226       2.53870904      15.57056784      -0.12295766       0.04189352      -0.00503535
Ag       4.69048095       0.84623631      17.95712964       0.00324385       0.00037727       0.00261490
Ag       0.29330792       5.07741807      15.57056784      -0.12295766       0.04189352      -0.00503535
Ag       0.29330792       3.38494535      17.95712964       0.00324385       0.00037727       0.00261490
Ag       1.75903226       4.23118176      20.34581802      -0.00072537       0.00000867       0.00546629
Ag       3.22475661       3.38494535      17.95712964       0.00324385       0.00037727       0.00261490
Ag       1.75903226       5.92365439      17.95712964       0.00324385       0.00037727       0.00261490
Ag       3.22475661       1.69247273      20.34581802      -0.00072537       0.00000867       0.00546629
Ag       4.69048095       2.53870904      22.73750299      -0.00072537      -0.00000867      -0.00546629
Ag       4.69048095       4.23118176      20.34581802      -0.00072537       0.00000867       0.00546629
Ag       0.29330792       8.46236342      17.95712964       0.00324385       0.00037727       0.00261490
Ag       0.29330792       6.76989080      20.34581802      -0.00072537       0.00000867       0.00546629
Ag       1.75903226       7.61612711      22.73750299      -0.00072537      -0.00000867      -0.00546629
Ag       3.22475661       6.76989080      20.34581802      -0.00072537       0.00000867       0.00546629
Ag       1.75903226       9.30859984      20.34581802      -0.00072537       0.00000867       0.00546629
Ag       3.22475661       5.07741807      22.73750299      -0.00072537      -0.00000867      -0.00546629
Ag       4.69048095       5.92365439      25.12619138       0.00324385      -0.00037727      -0.00261490
Ag       4.69048095       7.61612711      22.73750299      -0.00072537      -0.00000867      -0.00546629
Ag       3.22475661       8.46236342      25.12619138       0.00324385      -0.00037727      -0.00261490
Ag       4.69048095       9.30859984      27.51275346      -0.12295766      -0.04189352       0.00503535
Ag       0.00000000       1.69247273       5.98471102       0.00072537       0.00000867       0.00546629
Ag       0.00000000       0.00000000       8.37639599       0.00072537      -0.00000867      -0.00546629
Ag       1.46572434       0.84623631      10.76508437      -0.00324385      -0.00037727      -0.00261490
Ag       2.93144869       0.00000000       8.37639599       0.00072537      -0.00000867      -0.00546629
Ag       1.46572434       2.53870904       8.37639599       0.00072537      -0.00000867      -0.00546629
Ag       4.39717303       0.84623631      10.76508437      -0.00324385      -0.00037727      -0.00261490
Ag       0.00000000       5.07741807       8.37639599       0.00072537      -0.00000867      -0.00546629
Ag       0.00000000       3.38494535      10.76508437      -0.00324385      -0.00037727      -0.00261490
Ag       1.46572434       4.23118176      13.15164645       0.12295766      -0.04189352       0.00503535
Ag       2.93144869       3.38494535      10.76508437      -0.00324385      -0.00037727      -0.00261490
Ag       1.46572434       5.92365439      10.76508437      -0.00324385      -0.00037727      -0.00261490
Ag       2.93144869       1.69247273      13.15164645       0.12295766      -0.04189352       0.00503535
Ag       4.69048095       2.53870904      15.57056784      -0.12295766       0.04189352      -0.00503535
Ag       4.39717303       4.23118176      13.15164645       0.12295766      -0.04189352       0.00503535
Ag       0.00000000       8.46236342      10.76508437      -0.00324385      -0.00037727      -0.00261490
Ag       0.00000000       6.76989080      13.15164645       0.12295766      -0.04189352       0.00503535
Ag       1.75903226       7.61612711      15.57056784      -0.12295766       0.04189352      -0.00503535
Ag       2.93144869       6.76989080      13.15164645       0.12295766      -0.04189352       0.00503535
Ag       1.46572434       9.30859984      13.15164645       0.12295766      -0.04189352       0.00503535
Ag       3.22475661       5.07741807      15.57056784      -0.12295766       0.04189352      -0.00503535
Ag       4.69048095       5.92365439      17.95712964       0.00324385       0.00037727       0.00261490
Ag       4.69048095       7.61612711      15.57056784      -0.12295766       0.04189352      -0.00503535
Ag       3.22475661       8.46236342      17.95712964       0.00324385       0.00037727       0.00261490
Ag       4.69048095       9.30859984      20.34581802      -0.00072537       0.00000867       0.00546629
Ag       0.00000000       0.00000000       1.20946055       0.12295766       0.04189352      -0.00503535
Ag       1.46572434       0.84623631       3.59602263      -0.00324385       0.00037727       0.00261490
Ag       2.93144869       0.00000000       1.20946055       0.12295766       0.04189352      -0.00503535
Ag       1.46572434       2.53870904       1.20946055       0.12295766       0.04189352      -0.00503535
Ag       4.39717303       0.84623631       3.59602263      -0.00324385       0.00037727       0.00261490
Ag       0.00000000       5.07741807       1.20946055       0.12295766       0.04189352      -0.00503535
Ag       0.00000000       3.38494535       3.59602263      -0.00324385       0.00037727       0.00261490
Ag       1.46572434       4.23118176       5.98471102       0.00072537       0.00000867       0.00546629
Ag       2.93144869       3.38494535       3.59602263      -0.00324385       0.00037727       0.00261490
Ag       1.46572434       5.92365439       3.59602263      -0.00324385       0.00037727       0.00261490
Ag       2.93144869       1.69247273       5.98471102       0.00072537       0.00000867       0.00546629
Ag       4.39717303       2.53870904       8.37639599       0.00072537      -0.00000867      -0.00546629
Ag       4.39717303       4.23118176       5.98471102       0.00072537       0.00000867       0.00546629
Ag       0.00000000       8.46236342       3.59602263      -0.00324385       0.00037727       0.00261490
Ag       0.00000000       6.76989080       5.98471102       0.00072537       0.00000867       0.00546629
Ag       1.46572434       7.61612711       8.37639599       0.00072537      -0.00000867      -0.00546629
Ag       2.93144869       6.76989080       5.98471102       0.00072537       0.00000867       0.00546629
Ag       1.46572434       9.30859984       5.98471102       0.00072537       0.00000867       0.00546629
Ag       2.93144869       5.07741807       8.37639599       0.00072537      -0.00000867      -0.00546629
Ag       4.39717303       5.92365439      10.76508437      -0.00324385      -0.00037727      -0.00261490
Ag       4.39717303       7.61612711       8.37639599       0.00072537      -0.00000867      -0.00546629
Ag       2.93144869       8.46236342      10.76508437      -0.00324385      -0.00037727      -0.00261490
Ag       4.39717303       9.30859984      13.15164645       0.12295766      -0.04189352       0.00503535
Ag       4.39717303       2.53870904       1.20946055       0.12295766       0.04189352      -0.00503535
Ag       1.46572434       7.61612711       1.20946055       0.12295766       0.04189352      -0.00503535
Ag       2.93144869       5.07741807       1.20946055       0.12295766       0.04189352      -0.00503535
Ag       4.39717303       5.92365439       3.59602263      -0.00324385       0.00037727       0.00261490
Ag       4.39717303       7.61612711       1.20946055       0.12295766       0.04189352      -0.00503535
Ag       2.93144869       8.46236342       3.59602263      -0.00324385       0.00037727       0.00261490
Ag       4.39717303       9.30859984       5.98471102       0.00072537       0.00000867       0.00546629
96
Lattice="5.86289738 -0.0 0.0 0.0 10.15483615 -0.0 -0.0 -0.0 28.72221401" Properties=species:S:1:pos:R:3:forces:R:3 virial="3.1833395643107765 -0.0 -0.0 -0.0 -2.412378443050643 7.268179849106594 -0.0 7.268179849106594 11.275164989824827" energy=-259.90858752 pbc="T T T"
Ag       0.58661577       1.69247273      27.48392612      -0.16254478      -0.11870650       0.00142807
Ag       0.58661577       1.69247273      20.35282165       0.00023003      -0.00013036      -0.00296408
Ag       0.58661577       0.00000000      22.73049937       0.00023003       0.00013036       0.00296408
Ag       2.05234012       0.84623631      25.10699920       0.00692622      -0.00087142      -0.00123854
Ag       3.51806446       0.00000000      22.73049937       0.00023003       0.00013036       0.00296408
Ag       2.05234012       2.53870904      22.73049937       0.00023003       0.00013036       0.00296408
Ag       4.98378881       0.84623631      25.10699920       0.00692622      -0.00087142      -0.00123854
Ag       0.58661577       5.07741807      22.73049937       0.00023003       0.00013036       0.00296408
Ag       0.58661577       3.38494535      25.10699920       0.00692622      -0.00087142      -0.00123854
Ag       2.05234012       4.23118176      27.48392612      -0.16254478      -0.11870650       0.00142807
Ag       3.51806446       3.38494535      25.10699920       0.00692622      -0.00087142      -0.00123854
Ag       2.05234012       5.92365439      25.10699920       0.00692622      -0.00087142      -0.00123854
Ag       3.51806446       1.69247273      27.48392612      -0.16254478      -0.11870650       0.00142807
Ag       4.98378881       4.23118176      27.48392612      -0.16254478      -0.11870650       0.00142807
Ag       0.58661577       8.46236342      25.10699920       0.00692622      -0.00087142      -0.00123854
Ag       0.58661577       6.76989080      27.48392612      -0.16254478      -0.11870650       0.00142807
Ag       3.51806446       6.76989080      27.48392612      -0.16254478      -0.11870650       0.00142807
Ag       2.05234012       9.30859984      27.48392612      -0.16254478      -0.11870650       0.00142807
Ag       0.00000000       1.69247273      13.12281912       0.16254478      -0.11870650       0.00142807
Ag       0.58661577       0.00000000      15.59939489      -0.16254478       0.11870650      -0.00142807
Ag       2.05234012       0.84623631      17.97632182       0.00692622       0.00087142       0.00123854
Ag       3.51806446       0.00000000      15.59939489      -0.16254478       0.11870650      -0.00142807
Ag       2.05234012       2.53870904      15.59939489      -0.16254478       0.11870650      -0.00142807
Ag       4.98378881       0.84623631      17.97632182       0.00692622       0.00087142       0.00123854
Ag       0.58661577       5.07741807      15.59939489      -0.16254478       0.11870650      -0.00142807
Ag       0.58661577       3.38494535      17.97632182       0.00692622       0.00087142       0.00123854
Ag       2.05234012       4.23118176      20.35282165       0.00023003      -0.00013036      -0.00296408
Ag       3.51806446       3.38494535      17.97632182       0.00692622       0.00087142       0.00123854
Ag       2.05234012       5.92365439      17.97632182       0.00692622       0.00087142       0.00123854
Ag       3.51806446       1.69247273      20.35282165       0.00023003      -0.00013036      -0.00296408
Ag       4.98378881       2.53870904      22.73049937       0.00023003       0.00013036       0.00296408
Ag       4.98378881       4.23118176      20.35282165       0.00023003      -0.00013036      -0.00296408
Ag       0.58661577       8.46236342      17.97632182       0.00692622       0.00087142       0.00123854
Ag       0.58661577       6.76989080      20.35282165       0.00023003      -0.00013036      -0.00296408
Ag       2.05234012       7.61612711      22.73049937       0.00023003       0.00013036       0.00296408
Ag       3.51806446       6.76989080      20.35282165       0.00023003      -0.00013036      -0.00296408
Ag       2.05234012       9.30859984      20.35282165       0.00023003      -0.00013036      -0.00296408
Ag       3.51806446       5.07741807      22.73049937       0.00023003       0.00013036       0.00296408
Ag       4.98378881       5.92365439      25.10699920       0.00692622      -0.00087142      -0.00123854
Ag       4.98378881       7.61612711      22.73049937       0.00023003       0.00013036       0.00296408
Ag       3.51806446       8.46236342      25.10699920       0.00692622      -0.00087142      -0.00123854
Ag       4.98378881       9.30859984      27.48392612      -0.16254478      -0.11870650       0.00142807
Ag       0.00000000       1.69247273       5.99171464      -0.00023003      -0.00013036      -0.00296408
Ag       0.00000000       0.00000000       8.36939236      -0.00023003       0.00013036       0.00296408
Ag       1.46572434       0.84623631      10.74589219      -0.00692622      -0.00087142      -0.00123854
Ag       2.93144869       0.00000000       8.36939236      -0.00023003       0.00013036       0.00296408
Ag       1.46572434       2.53870904       8.36939236      -0.00023003       0.00013036       0.00296408
Ag       4.39717303       0.84623631      10.74589219      -0.00692622      -0.00087142      -0.00123854
Ag       0.00000000       5.07741807       8.36939236      -0.00023003       0.00013036       0.00296408
Ag       0.00000000       3.38494535      10.74589219      -0.00692622      -0.00087142      -0.00123854
Ag       1.46572434       4.23118176      13.12281912       0.16254478      -0.11870650       0.00142807
Ag       2.93144869       3.38494535      10.74589219      -0.00692622      -0.00087142      -0.00123854
Ag       1.46572434       5.92365439      10.74589219      -0.00692622      -0.00087142      -0.00123854
Ag       2.93144869       1.69247273      13.12281912       0.16254478      -0.11870650       0.00142807
Ag       4.98378881       2.53870904      15.59939489      -0.16254478       0.11870650      -0.00142807
Ag       4.39717303       4.23118176      13.12281912       0.16254478      -0.11870650       0.00142807
Ag       0.00000000       8.46236342      10.74589219      -0.00692622      -0.00087142      -0.00123854
Ag       0.00000000       6.76989080      13.12281912       0.16254478      -0.11870650       0.00142807
Ag       2.05234012       7.61612711      15.59939489      -0.16254478       0.11870650      -0.00142807
Ag       2.93144869       6.76989080      13.12281912       0.16254478      -0.11870650       0.00142807
Ag       1.46572434       9.30859984      13.12281912       0.16254478      -0.11870650       0.00142807
Ag       3.51806446       5.07741807      15.59939489      -0.16254478       0.11870650      -0.00142807
Ag       4.98378881       5.92365439      17.97632182       0.00692622       0.00087142       0.00123854
Ag       4.98378881       7.61612711      15.59939489      -0.16254478       0.11870650      -0.00142807
Ag       3.51806446       8.46236342      17.97632182       0.00692622       0.00087142       0.00123854
Ag       4.98378881       9.30859984      20.35282165       0.00023003      -0.00013036      -0.00296408
Ag       0.00000000       0.00000000       1.23828789       0.16254478       0.11870650      -0.00142807
Ag       1.46572434       0.84623631       3.61521481      -0.00692622       0.00087142       0.00123854
Ag       2.93144869       0.00000000       1.23828789       0.16254478       0.11870650      -0.00142807
Ag       1.46572434       2.53870904       1.23828789       0.16254478       0.11870650      -0.00142807
Ag       4.39717303       0.84623631       3.61521481      -0.00692622       0.00087142       0.00123854
Ag       0.00000000       5.07741807       1.23828789       0.16254478       0.11870650      -0.00142807
Ag       0.00000000       3.38494535       3.61521481      -0.00692622       0.00087142       0.00123854
Ag       1.46572434       4.23118176       5.99171464      -0.00023003      -0.00013036      -0.00296408
Ag       2.93144869       3.38494535       3.61521481      -0.00692622       0.00087142       0.00123854
Ag       1.46572434       5.92365439       3.61521481      -0.00692622       0.00087142       0.00123854
Ag       2.93144869       1.69247273       5.99171464      -0.00023003      -0.00013036      -0.00296408
Ag       4.39717303       2.53870904       8.36939236      -0.00023003       0.00013036       0.00296408
Ag       4.39717303       4.23118176       5.99171464      -0.00023003      -0.00013036      -0.00296408
Ag       0.00000000       8.46236342       3.61521481      -0.00692622       0.00087142       0.00123854
Ag       0.00000000       6.76989080       5.99171464      -0.00023003      -0.00013036      -0.00296408
Ag       1.46572434       7.61612711       8.36939236      -0.00023003       0.00013036       0.00296408
Ag       2.93144869       6.76989080       5.99171464      -0.00023003      -0.00013036      -0.00296408
Ag       1.46572434       9.30859984       5.99171464      -0.00023003      -0.00013036      -0.00296408
Ag       2.93144869       5.07741807       8.36939236      -0.00023003       0.00013036       0.00296408