LAMMPS (23 Jun 2022 - Update 4)
units metal
atom_style atomic
atom_modify map array sort 0 0
boundary p p p
box tilt large
region cell prism    0 4.159 0 4.159 0 4.159     0.0 0.0 0.0     units box
create_box 1 cell
Created triclinic box = (0 0 0) to (4.159 4.159 4.159) with tilt (0 0 0)
  1 by 1 by 1 MPI processor grid
echo none
Created 4 atoms
  using lattice units in triclinic box = (0 0 0) to (4.159 4.159 4.159) with tilt (0 0 0)
  create_atoms CPU = 0.000 seconds
Setting atom values ...
  1 settings made for type
Setting atom values ...
  1 settings made for type
Setting atom values ...
  1 settings made for type
Setting atom values ...
  1 settings made for type
pair_style eam/alloy
pair_coeff * * potentials/Au.eam.alloy Au
Reading eam/alloy potential file potentials/Au.eam.alloy with DATE: 2018-03-30
mass 1 196.966568949331445992356748320162
variable pxx equal pxx
variable pyy equal pyy
variable pzz equal pzz
variable pxy equal pxy
variable pxz equal pxz
variable pyz equal pyz
thermo_style custom pe pxx emol ecoul
variable fx atom fx
variable fy atom fy
variable fz atom fz
variable pe equal pe
neigh_modify delay 0 every 1 check yes
echo none
run 0
WARNING: No fixes with time integration, atoms won't move (src/src/verlet.cpp:60)
Neighbor list info ...
  update every 1 steps, delay 0 steps, check yes
  max neighbors/atom: 2000, page size: 100000
  master list distance cutoff = 8.4511321
  ghost atom cutoff = 8.4511321
  binsize = 4.2255661, bins = 1 1 1
  1 neighbor lists, perpetual/occasional/extra = 1 0 0
  (1) pair eam/alloy, perpetual
      attributes: half, newton on
      pair build: half/bin/newton/tri
      stencil: half/bin/3d/tri
      bin: standard
Per MPI rank memory allocation (min/avg/max) = 3.245 | 3.245 | 3.245 Mbytes
    PotEng          Pxx           E_mol          E_coul    
-15.61065      -81686.29       0              0            
Loop time of 1.208e-06 on 1 procs for 0 steps with 4 atoms

82.8% CPU use with 1 MPI tasks x no OpenMP threads

MPI task timing breakdown:
Section |  min time  |  avg time  |  max time  |%varavg| %total
---------------------------------------------------------------
Pair    | 0          | 0          | 0          |   0.0 |  0.00
Neigh   | 0          | 0          | 0          |   0.0 |  0.00
Comm    | 0          | 0          | 0          |   0.0 |  0.00
Output  | 0          | 0          | 0          |   0.0 |  0.00
Modify  | 0          | 0          | 0          |   0.0 |  0.00
Other   |            | 1.208e-06  |            |       |100.00

Nlocal:              4 ave           4 max           4 min
Histogram: 1 0 0 0 0 0 0 0 0 0
Nghost:            662 ave         662 max         662 min
Histogram: 1 0 0 0 0 0 0 0 0 0
Neighs:            280 ave         280 max         280 min
Histogram: 1 0 0 0 0 0 0 0 0 0

Total # of neighbors = 280
Ave neighs/atom = 70
Neighbor list builds = 0
Dangerous builds = 0
set atom * x 0.0 y 0.0 z 0.0
Setting atom values ...
  4 settings made for x
  4 settings made for y
  4 settings made for z
change_box all     x final 0 3.405101202051326 y final 0 3.405101202051326 z final 0 3.405101202051326      xy final 0.0 xz final 0.0 yz final 0.0 units box
Changing box ...
  triclinic box = (0 0 0) to (3.4051012 4.159 4.159) with tilt (0 0 0)
  triclinic box = (0 0 0) to (3.4051012 3.4051012 4.159) with tilt (0 0 0)
  triclinic box = (0 0 0) to (3.4051012 3.4051012 3.4051012) with tilt (0 0 0)
  triclinic box = (0 0 0) to (3.4051012 3.4051012 3.4051012) with tilt (0 0 0)
  triclinic box = (0 0 0) to (3.4051012 3.4051012 3.4051012) with tilt (0 0 0)
  triclinic box = (0 0 0) to (3.4051012 3.4051012 3.4051012) with tilt (0 0 0)
echo none
run 0
WARNING: No fixes with time integration, atoms won't move (src/src/verlet.cpp:60)
Per MPI rank memory allocation (min/avg/max) = 3.245 | 3.245 | 3.245 Mbytes
    PotEng          Pxx           E_mol          E_coul    
 1.9221841      3341456.5      0              0            
Loop time of 1.083e-06 on 1 procs for 0 steps with 4 atoms

184.7% CPU use with 1 MPI tasks x no OpenMP threads

MPI task timing breakdown:
Section |  min time  |  avg time  |  max time  |%varavg| %total
---------------------------------------------------------------
Pair    | 0          | 0          | 0          |   0.0 |  0.00
Neigh   | 0          | 0          | 0          |   0.0 |  0.00
Comm    | 0          | 0          | 0          |   0.0 |  0.00
Output  | 0          | 0          | 0          |   0.0 |  0.00
Modify  | 0          | 0          | 0          |   0.0 |  0.00
Other   |            | 1.083e-06  |            |       |100.00

Nlocal:              4 ave           4 max           4 min
Histogram: 1 0 0 0 0 0 0 0 0 0
Nghost:            662 ave         662 max         662 min
Histogram: 1 0 0 0 0 0 0 0 0 0
Neighs:            496 ave         496 max         496 min
Histogram: 1 0 0 0 0 0 0 0 0 0

Total # of neighbors = 496
Ave neighs/atom = 124
Neighbor list builds = 0
Dangerous builds = 0
set atom * x 0.0 y 0.0 z 0.0
Setting atom values ...
  4 settings made for x
  4 settings made for y
  4 settings made for z
change_box all     x final 0 4.089067605108945 y final 0 4.089067605108945 z final 0 4.089067605108945      xy final 0.0 xz final 0.0 yz final 0.0 units box
Changing box ...
  triclinic box = (0 0 0) to (4.0890676 3.4051012 3.4051012) with tilt (0 0 0)
  triclinic box = (0 0 0) to (4.0890676 4.0890676 3.4051012) with tilt (0 0 0)
  triclinic box = (0 0 0) to (4.0890676 4.0890676 4.0890676) with tilt (0 0 0)
  triclinic box = (0 0 0) to (4.0890676 4.0890676 4.0890676) with tilt (0 0 0)
  triclinic box = (0 0 0) to (4.0890676 4.0890676 4.0890676) with tilt (0 0 0)
  triclinic box = (0 0 0) to (4.0890676 4.0890676 4.0890676) with tilt (0 0 0)
echo none
run 0
WARNING: No fixes with time integration, atoms won't move (src/src/verlet.cpp:60)
Per MPI rank memory allocation (min/avg/max) = 3.245 | 3.245 | 3.245 Mbytes
    PotEng          Pxx           E_mol          E_coul    
-15.718469     -10862.239      0              0            
Loop time of 1.083e-06 on 1 procs for 0 steps with 4 atoms

92.3% CPU use with 1 MPI tasks x no OpenMP threads

MPI task timing breakdown:
Section |  min time  |  avg time  |  max time  |%varavg| %total
---------------------------------------------------------------
Pair    | 0          | 0          | 0          |   0.0 |  0.00
Neigh   | 0          | 0          | 0          |   0.0 |  0.00
Comm    | 0          | 0          | 0          |   0.0 |  0.00
Output  | 0          | 0          | 0          |   0.0 |  0.00
Modify  | 0          | 0          | 0          |   0.0 |  0.00
Other   |            | 1.083e-06  |            |       |100.00

Nlocal:              4 ave           4 max           4 min
Histogram: 1 0 0 0 0 0 0 0 0 0
Nghost:            662 ave         662 max         662 min
Histogram: 1 0 0 0 0 0 0 0 0 0
Neighs:            280 ave         280 max         280 min
Histogram: 1 0 0 0 0 0 0 0 0 0

Total # of neighbors = 280
Ave neighs/atom = 70
Neighbor list builds = 0
Dangerous builds = 0
set atom * x 0.0 y 0.0 z 0.0
Setting atom values ...
  4 settings made for x
  4 settings made for y
  4 settings made for z
change_box all     x final 0 4.079048897282803 y final 0 4.079048897282803 z final 0 4.079048897282803      xy final 0.0 xz final 0.0 yz final 0.0 units box
Changing box ...
  triclinic box = (0 0 0) to (4.0790489 4.0890676 4.0890676) with tilt (0 0 0)
  triclinic box = (0 0 0) to (4.0790489 4.0790489 4.0890676) with tilt (0 0 0)
  triclinic box = (0 0 0) to (4.0790489 4.0790489 4.0790489) with tilt (0 0 0)
  triclinic box = (0 0 0) to (4.0790489 4.0790489 4.0790489) with tilt (0 0 0)
  triclinic box = (0 0 0) to (4.0790489 4.0790489 4.0790489) with tilt (0 0 0)
  triclinic box = (0 0 0) to (4.0790489 4.0790489 4.0790489) with tilt (0 0 0)
echo none
run 0
WARNING: No fixes with time integration, atoms won't move (src/src/verlet.cpp:60)
Per MPI rank memory allocation (min/avg/max) = 3.245 | 3.245 | 3.245 Mbytes
    PotEng          Pxx           E_mol          E_coul    
-15.720001      1236.1556      0              0            
Loop time of 1.042e-06 on 1 procs for 0 steps with 4 atoms

191.9% CPU use with 1 MPI tasks x no OpenMP threads

MPI task timing breakdown:
Section |  min time  |  avg time  |  max time  |%varavg| %total
---------------------------------------------------------------
Pair    | 0          | 0          | 0          |   0.0 |  0.00
Neigh   | 0          | 0          | 0          |   0.0 |  0.00
Comm    | 0          | 0          | 0          |   0.0 |  0.00
Output  | 0          | 0          | 0          |   0.0 |  0.00
Modify  | 0          | 0          | 0          |   0.0 |  0.00
Other   |            | 1.042e-06  |            |       |100.00

Nlocal:              4 ave           4 max           4 min
Histogram: 1 0 0 0 0 0 0 0 0 0
Nghost:            662 ave         662 max         662 min
Histogram: 1 0 0 0 0 0 0 0 0 0
Neighs:            280 ave         280 max         280 min
Histogram: 1 0 0 0 0 0 0 0 0 0

Total # of neighbors = 280
Ave neighs/atom = 70
Neighbor list builds = 0
Dangerous builds = 0
set atom * x 0.0 y 0.0 z 0.0
Setting atom values ...
  4 settings made for x
  4 settings made for y
  4 settings made for z
change_box all     x final 0 4.08006469616397 y final 0 4.08006469616397 z final 0 4.08006469616397      xy final 0.0 xz final 0.0 yz final 0.0 units box
Changing box ...
  triclinic box = (0 0 0) to (4.0800647 4.0790489 4.0790489) with tilt (0 0 0)
  triclinic box = (0 0 0) to (4.0800647 4.0800647 4.0790489) with tilt (0 0 0)
  triclinic box = (0 0 0) to (4.0800647 4.0800647 4.0800647) with tilt (0 0 0)
  triclinic box = (0 0 0) to (4.0800647 4.0800647 4.0800647) with tilt (0 0 0)
  triclinic box = (0 0 0) to (4.0800647 4.0800647 4.0800647) with tilt (0 0 0)
  triclinic box = (0 0 0) to (4.0800647 4.0800647 4.0800647) with tilt (0 0 0)
echo none
run 0
WARNING: No fixes with time integration, atoms won't move (src/src/verlet.cpp:60)
Per MPI rank memory allocation (min/avg/max) = 3.245 | 3.245 | 3.245 Mbytes
    PotEng          Pxx           E_mol          E_coul    
-15.720009     -10.809045      0              0            
Loop time of 1.209e-06 on 1 procs for 0 steps with 4 atoms

165.4% CPU use with 1 MPI tasks x no OpenMP threads

MPI task timing breakdown:
Section |  min time  |  avg time  |  max time  |%varavg| %total
---------------------------------------------------------------
Pair    | 0          | 0          | 0          |   0.0 |  0.00
Neigh   | 0          | 0          | 0          |   0.0 |  0.00
Comm    | 0          | 0          | 0          |   0.0 |  0.00
Output  | 0          | 0          | 0          |   0.0 |  0.00
Modify  | 0          | 0          | 0          |   0.0 |  0.00
Other   |            | 1.209e-06  |            |       |100.00

Nlocal:              4 ave           4 max           4 min
Histogram: 1 0 0 0 0 0 0 0 0 0
Nghost:            662 ave         662 max         662 min
Histogram: 1 0 0 0 0 0 0 0 0 0
Neighs:            280 ave         280 max         280 min
Histogram: 1 0 0 0 0 0 0 0 0 0

Total # of neighbors = 280
Ave neighs/atom = 70
Neighbor list builds = 0
Dangerous builds = 0
set atom * x 0.0 y 0.0 z 0.0
Setting atom values ...
  4 settings made for x
  4 settings made for y
  4 settings made for z
change_box all     x final 0 4.079615185813301 y final 0 4.079615185813301 z final 0 4.079615185813301      xy final 0.0 xz final 0.0 yz final 0.0 units box
Changing box ...
  triclinic box = (0 0 0) to (4.0796152 4.0800647 4.0800647) with tilt (0 0 0)
  triclinic box = (0 0 0) to (4.0796152 4.0796152 4.0800647) with tilt (0 0 0)
  triclinic box = (0 0 0) to (4.0796152 4.0796152 4.0796152) with tilt (0 0 0)
  triclinic box = (0 0 0) to (4.0796152 4.0796152 4.0796152) with tilt (0 0 0)
  triclinic box = (0 0 0) to (4.0796152 4.0796152 4.0796152) with tilt (0 0 0)
  triclinic box = (0 0 0) to (4.0796152 4.0796152 4.0796152) with tilt (0 0 0)
echo none
run 0
WARNING: No fixes with time integration, atoms won't move (src/src/verlet.cpp:60)
Per MPI rank memory allocation (min/avg/max) = 3.245 | 3.245 | 3.245 Mbytes
    PotEng          Pxx           E_mol          E_coul    
-15.720016      538.67078      0              0            
Loop time of 5.42e-07 on 1 procs for 0 steps with 4 atoms

184.5% CPU use with 1 MPI tasks x no OpenMP threads

MPI task timing breakdown:
Section |  min time  |  avg time  |  max time  |%varavg| %total
---------------------------------------------------------------
Pair    | 0          | 0          | 0          |   0.0 |  0.00
Neigh   | 0          | 0          | 0          |   0.0 |  0.00
Comm    | 0          | 0          | 0          |   0.0 |  0.00
Output  | 0          | 0          | 0          |   0.0 |  0.00
Modify  | 0          | 0          | 0          |   0.0 |  0.00
Other   |            | 5.42e-07   |            |       |100.00

Nlocal:              4 ave           4 max           4 min
Histogram: 1 0 0 0 0 0 0 0 0 0
Nghost:            662 ave         662 max         662 min
Histogram: 1 0 0 0 0 0 0 0 0 0
Neighs:            280 ave         280 max         280 min
Histogram: 1 0 0 0 0 0 0 0 0 0

Total # of neighbors = 280
Ave neighs/atom = 70
Neighbor list builds = 0
Dangerous builds = 0
set atom * x 0.0 y 0.0 z 0.0
Setting atom values ...
  4 settings made for x
  4 settings made for y
  4 settings made for z
change_box all     x final 0 4.080052909937474 y final 0 4.080052909937474 z final 0 4.080052909937474      xy final 0.0 xz final 0.0 yz final 0.0 units box
Changing box ...
  triclinic box = (0 0 0) to (4.0800529 4.0796152 4.0796152) with tilt (0 0 0)
  triclinic box = (0 0 0) to (4.0800529 4.0800529 4.0796152) with tilt (0 0 0)
  triclinic box = (0 0 0) to (4.0800529 4.0800529 4.0800529) with tilt (0 0 0)
  triclinic box = (0 0 0) to (4.0800529 4.0800529 4.0800529) with tilt (0 0 0)
  triclinic box = (0 0 0) to (4.0800529 4.0800529 4.0800529) with tilt (0 0 0)
  triclinic box = (0 0 0) to (4.0800529 4.0800529 4.0800529) with tilt (0 0 0)
echo none
run 0
WARNING: No fixes with time integration, atoms won't move (src/src/verlet.cpp:60)
Per MPI rank memory allocation (min/avg/max) = 3.245 | 3.245 | 3.245 Mbytes
    PotEng          Pxx           E_mol          E_coul    
-15.72002       0.63082908     0              0            
Loop time of 9.16e-07 on 1 procs for 0 steps with 4 atoms

327.5% CPU use with 1 MPI tasks x no OpenMP threads

MPI task timing breakdown:
Section |  min time  |  avg time  |  max time  |%varavg| %total
---------------------------------------------------------------
Pair    | 0          | 0          | 0          |   0.0 |  0.00
Neigh   | 0          | 0          | 0          |   0.0 |  0.00
Comm    | 0          | 0          | 0          |   0.0 |  0.00
Output  | 0          | 0          | 0          |   0.0 |  0.00
Modify  | 0          | 0          | 0          |   0.0 |  0.00
Other   |            | 9.16e-07   |            |       |100.00

Nlocal:              4 ave           4 max           4 min
Histogram: 1 0 0 0 0 0 0 0 0 0
Nghost:            662 ave         662 max         662 min
Histogram: 1 0 0 0 0 0 0 0 0 0
Neighs:            280 ave         280 max         280 min
Histogram: 1 0 0 0 0 0 0 0 0 0

Total # of neighbors = 280
Ave neighs/atom = 70
Neighbor list builds = 0
Dangerous builds = 0
set atom * x 0.0 y 0.0 z 0.0
Setting atom values ...
  4 settings made for x
  4 settings made for y
  4 settings made for z
change_box all     x final 0 3.6720476189437266 y final 0 3.6720476189437266 z final 0 3.6720476189437266      xy final 0.0 xz final 0.0 yz final 0.0 units box
Changing box ...
  triclinic box = (0 0 0) to (3.6720476 4.0800529 4.0800529) with tilt (0 0 0)
  triclinic box = (0 0 0) to (3.6720476 3.6720476 4.0800529) with tilt (0 0 0)
  triclinic box = (0 0 0) to (3.6720476 3.6720476 3.6720476) with tilt (0 0 0)
  triclinic box = (0 0 0) to (3.6720476 3.6720476 3.6720476) with tilt (0 0 0)
  triclinic box = (0 0 0) to (3.6720476 3.6720476 3.6720476) with tilt (0 0 0)
  triclinic box = (0 0 0) to (3.6720476 3.6720476 3.6720476) with tilt (0 0 0)
echo none
run 0
WARNING: No fixes with time integration, atoms won't move (src/src/verlet.cpp:60)
Per MPI rank memory allocation (min/avg/max) = 3.245 | 3.245 | 3.245 Mbytes
    PotEng          Pxx           E_mol          E_coul    
-10.90657       1134093.8      0              0            
Loop time of 9.58e-07 on 1 procs for 0 steps with 4 atoms

104.4% CPU use with 1 MPI tasks x no OpenMP threads

MPI task timing breakdown:
Section |  min time  |  avg time  |  max time  |%varavg| %total
---------------------------------------------------------------
Pair    | 0          | 0          | 0          |   0.0 |  0.00
Neigh   | 0          | 0          | 0          |   0.0 |  0.00
Comm    | 0          | 0          | 0          |   0.0 |  0.00
Output  | 0          | 0          | 0          |   0.0 |  0.00
Modify  | 0          | 0          | 0          |   0.0 |  0.00
Other   |            | 9.58e-07   |            |       |100.00

Nlocal:              4 ave           4 max           4 min
Histogram: 1 0 0 0 0 0 0 0 0 0
Nghost:            662 ave         662 max         662 min
Histogram: 1 0 0 0 0 0 0 0 0 0
Neighs:            400 ave         400 max         400 min
Histogram: 1 0 0 0 0 0 0 0 0 0

Total # of neighbors = 400
Ave neighs/atom = 100
Neighbor list builds = 0
Dangerous builds = 0
set atom * x 0.0 y 0.0 z 0.0
Setting atom values ...
  4 settings made for x
  4 settings made for y
  4 settings made for z
change_box all     x final 0 3.7128481480431015 y final 0 3.7128481480431015 z final 0 3.7128481480431015      xy final 0.0 xz final 0.0 yz final 0.0 units box
Changing box ...
  triclinic box = (0 0 0) to (3.7128481 3.6720476 3.6720476) with tilt (0 0 0)
  triclinic box = (0 0 0) to (3.7128481 3.7128481 3.6720476) with tilt (0 0 0)
  triclinic box = (0 0 0) to (3.7128481 3.7128481 3.7128481) with tilt (0 0 0)
  triclinic box = (0 0 0) to (3.7128481 3.7128481 3.7128481) with tilt (0 0 0)
  triclinic box = (0 0 0) to (3.7128481 3.7128481 3.7128481) with tilt (0 0 0)
  triclinic box = (0 0 0) to (3.7128481 3.7128481 3.7128481) with tilt (0 0 0)
echo none
run 0
WARNING: No fixes with time integration, atoms won't move (src/src/verlet.cpp:60)
Per MPI rank memory allocation (min/avg/max) = 3.245 | 3.245 | 3.245 Mbytes
    PotEng          Pxx           E_mol          E_coul    
-11.983631      939102.9       0              0            
Loop time of 1.917e-06 on 1 procs for 0 steps with 4 atoms

156.5% CPU use with 1 MPI tasks x no OpenMP threads

MPI task timing breakdown:
Section |  min time  |  avg time  |  max time  |%varavg| %total
---------------------------------------------------------------
Pair    | 0          | 0          | 0          |   0.0 |  0.00
Neigh   | 0          | 0          | 0          |   0.0 |  0.00
Comm    | 0          | 0          | 0          |   0.0 |  0.00
Output  | 0          | 0          | 0          |   0.0 |  0.00
Modify  | 0          | 0          | 0          |   0.0 |  0.00
Other   |            | 1.917e-06  |            |       |100.00

Nlocal:              4 ave           4 max           4 min
Histogram: 1 0 0 0 0 0 0 0 0 0
Nghost:            662 ave         662 max         662 min
Histogram: 1 0 0 0 0 0 0 0 0 0
Neighs:            400 ave         400 max         400 min
Histogram: 1 0 0 0 0 0 0 0 0 0

Total # of neighbors = 400
Ave neighs/atom = 100
Neighbor list builds = 0
Dangerous builds = 0
set atom * x 0.0 y 0.0 z 0.0
Setting atom values ...
  4 settings made for x
  4 settings made for y
  4 settings made for z
change_box all     x final 0 3.7536486771424764 y final 0 3.7536486771424764 z final 0 3.7536486771424764      xy final 0.0 xz final 0.0 yz final 0.0 units box
Changing box ...
  triclinic box = (0 0 0) to (3.7536487 3.7128481 3.7128481) with tilt (0 0 0)
  triclinic box = (0 0 0) to (3.7536487 3.7536487 3.7128481) with tilt (0 0 0)
  triclinic box = (0 0 0) to (3.7536487 3.7536487 3.7536487) with tilt (0 0 0)
  triclinic box = (0 0 0) to (3.7536487 3.7536487 3.7536487) with tilt (0 0 0)
  triclinic box = (0 0 0) to (3.7536487 3.7536487 3.7536487) with tilt (0 0 0)
  triclinic box = (0 0 0) to (3.7536487 3.7536487 3.7536487) with tilt (0 0 0)
echo none
run 0
WARNING: No fixes with time integration, atoms won't move (src/src/verlet.cpp:60)
Per MPI rank memory allocation (min/avg/max) = 3.245 | 3.245 | 3.245 Mbytes
    PotEng          Pxx           E_mol          E_coul    
-12.890548      768847.98      0              0            
Loop time of 1e-06 on 1 procs for 0 steps with 4 atoms

0.0% CPU use with 1 MPI tasks x no OpenMP threads

MPI task timing breakdown:
Section |  min time  |  avg time  |  max time  |%varavg| %total
---------------------------------------------------------------
Pair    | 0          | 0          | 0          |   0.0 |  0.00
Neigh   | 0          | 0          | 0          |   0.0 |  0.00
Comm    | 0          | 0          | 0          |   0.0 |  0.00
Output  | 0          | 0          | 0          |   0.0 |  0.00
Modify  | 0          | 0          | 0          |   0.0 |  0.00
Other   |            | 1e-06      |            |       |100.00

Nlocal:              4 ave           4 max           4 min
Histogram: 1 0 0 0 0 0 0 0 0 0
Nghost:            662 ave         662 max         662 min
Histogram: 1 0 0 0 0 0 0 0 0 0
Neighs:            400 ave         400 max         400 min
Histogram: 1 0 0 0 0 0 0 0 0 0

Total # of neighbors = 400
Ave neighs/atom = 100
Neighbor list builds = 0
Dangerous builds = 0
set atom * x 0.0 y 0.0 z 0.0
Setting atom values ...
  4 settings made for x
  4 settings made for y
  4 settings made for z
change_box all     x final 0 3.794449206241851 y final 0 3.794449206241851 z final 0 3.794449206241851      xy final 0.0 xz final 0.0 yz final 0.0 units box
Changing box ...
  triclinic box = (0 0 0) to (3.7944492 3.7536487 3.7536487) with tilt (0 0 0)
  triclinic box = (0 0 0) to (3.7944492 3.7944492 3.7536487) with tilt (0 0 0)
  triclinic box = (0 0 0) to (3.7944492 3.7944492 3.7944492) with tilt (0 0 0)
  triclinic box = (0 0 0) to (3.7944492 3.7944492 3.7944492) with tilt (0 0 0)
  triclinic box = (0 0 0) to (3.7944492 3.7944492 3.7944492) with tilt (0 0 0)
  triclinic box = (0 0 0) to (3.7944492 3.7944492 3.7944492) with tilt (0 0 0)
echo none
run 0
WARNING: No fixes with time integration, atoms won't move (src/src/verlet.cpp:60)
Per MPI rank memory allocation (min/avg/max) = 3.245 | 3.245 | 3.245 Mbytes
    PotEng          Pxx           E_mol          E_coul    
-13.644088      619968.8       0              0            
Loop time of 1.083e-06 on 1 procs for 0 steps with 4 atoms

92.3% CPU use with 1 MPI tasks x no OpenMP threads

MPI task timing breakdown:
Section |  min time  |  avg time  |  max time  |%varavg| %total
---------------------------------------------------------------
Pair    | 0          | 0          | 0          |   0.0 |  0.00
Neigh   | 0          | 0          | 0          |   0.0 |  0.00
Comm    | 0          | 0          | 0          |   0.0 |  0.00
Output  | 0          | 0          | 0          |   0.0 |  0.00
Modify  | 0          | 0          | 0          |   0.0 |  0.00
Other   |            | 1.083e-06  |            |       |100.00

Nlocal:              4 ave           4 max           4 min
Histogram: 1 0 0 0 0 0 0 0 0 0
Nghost:            662 ave         662 max         662 min
Histogram: 1 0 0 0 0 0 0 0 0 0
Neighs:            352 ave         352 max         352 min
Histogram: 1 0 0 0 0 0 0 0 0 0

Total # of neighbors = 352
Ave neighs/atom = 88
Neighbor list builds = 0
Dangerous builds = 0
set atom * x 0.0 y 0.0 z 0.0
Setting atom values ...
  4 settings made for x
  4 settings made for y
  4 settings made for z
change_box all     x final 0 3.835249735341226 y final 0 3.835249735341226 z final 0 3.835249735341226      xy final 0.0 xz final 0.0 yz final 0.0 units box
Changing box ...
  triclinic box = (0 0 0) to (3.8352497 3.7944492 3.7944492) with tilt (0 0 0)
  triclinic box = (0 0 0) to (3.8352497 3.8352497 3.7944492) with tilt (0 0 0)
  triclinic box = (0 0 0) to (3.8352497 3.8352497 3.8352497) with tilt (0 0 0)
  triclinic box = (0 0 0) to (3.8352497 3.8352497 3.8352497) with tilt (0 0 0)
  triclinic box = (0 0 0) to (3.8352497 3.8352497 3.8352497) with tilt (0 0 0)
  triclinic box = (0 0 0) to (3.8352497 3.8352497 3.8352497) with tilt (0 0 0)
echo none
run 0
WARNING: No fixes with time integration, atoms won't move (src/src/verlet.cpp:60)
Per MPI rank memory allocation (min/avg/max) = 3.245 | 3.245 | 3.245 Mbytes
    PotEng          Pxx           E_mol          E_coul    
-14.259072      489643.93      0              0            
Loop time of 5.42e-07 on 1 procs for 0 steps with 4 atoms

0.0% CPU use with 1 MPI tasks x no OpenMP threads

MPI task timing breakdown:
Section |  min time  |  avg time  |  max time  |%varavg| %total
---------------------------------------------------------------
Pair    | 0          | 0          | 0          |   0.0 |  0.00
Neigh   | 0          | 0          | 0          |   0.0 |  0.00
Comm    | 0          | 0          | 0          |   0.0 |  0.00
Output  | 0          | 0          | 0          |   0.0 |  0.00
Modify  | 0          | 0          | 0          |   0.0 |  0.00
Other   |            | 5.42e-07   |            |       |100.00

Nlocal:              4 ave           4 max           4 min
Histogram: 1 0 0 0 0 0 0 0 0 0
Nghost:            662 ave         662 max         662 min
Histogram: 1 0 0 0 0 0 0 0 0 0
Neighs:            352 ave         352 max         352 min
Histogram: 1 0 0 0 0 0 0 0 0 0

Total # of neighbors = 352
Ave neighs/atom = 88
Neighbor list builds = 0
Dangerous builds = 0
set atom * x 0.0 y 0.0 z 0.0
Setting atom values ...
  4 settings made for x
  4 settings made for y
  4 settings made for z
change_box all     x final 0 3.8760502644406007 y final 0 3.8760502644406007 z final 0 3.8760502644406007      xy final 0.0 xz final 0.0 yz final 0.0 units box
Changing box ...
  triclinic box = (0 0 0) to (3.8760503 3.8352497 3.8352497) with tilt (0 0 0)
  triclinic box = (0 0 0) to (3.8760503 3.8760503 3.8352497) with tilt (0 0 0)
  triclinic box = (0 0 0) to (3.8760503 3.8760503 3.8760503) with tilt (0 0 0)
  triclinic box = (0 0 0) to (3.8760503 3.8760503 3.8760503) with tilt (0 0 0)
  triclinic box = (0 0 0) to (3.8760503 3.8760503 3.8760503) with tilt (0 0 0)
  triclinic box = (0 0 0) to (3.8760503 3.8760503 3.8760503) with tilt (0 0 0)
echo none
run 0
WARNING: No fixes with time integration, atoms won't move (src/src/verlet.cpp:60)
Per MPI rank memory allocation (min/avg/max) = 3.245 | 3.245 | 3.245 Mbytes
    PotEng          Pxx           E_mol          E_coul    
-14.748725      375567.94      0              0            
Loop time of 8.75e-07 on 1 procs for 0 steps with 4 atoms

114.3% CPU use with 1 MPI tasks x no OpenMP threads

MPI task timing breakdown:
Section |  min time  |  avg time  |  max time  |%varavg| %total
---------------------------------------------------------------
Pair    | 0          | 0          | 0          |   0.0 |  0.00
Neigh   | 0          | 0          | 0          |   0.0 |  0.00
Comm    | 0          | 0          | 0          |   0.0 |  0.00
Output  | 0          | 0          | 0          |   0.0 |  0.00
Modify  | 0          | 0          | 0          |   0.0 |  0.00
Other   |            | 8.75e-07   |            |       |100.00

Nlocal:              4 ave           4 max           4 min
Histogram: 1 0 0 0 0 0 0 0 0 0
Nghost:            662 ave         662 max         662 min
Histogram: 1 0 0 0 0 0 0 0 0 0
Neighs:            352 ave         352 max         352 min
Histogram: 1 0 0 0 0 0 0 0 0 0

Total # of neighbors = 352
Ave neighs/atom = 88
Neighbor list builds = 0
Dangerous builds = 0
set atom * x 0.0 y 0.0 z 0.0
Setting atom values ...
  4 settings made for x
  4 settings made for y
  4 settings made for z
change_box all     x final 0 3.9168507935399752 y final 0 3.9168507935399752 z final 0 3.9168507935399752      xy final 0.0 xz final 0.0 yz final 0.0 units box
Changing box ...
  triclinic box = (0 0 0) to (3.9168508 3.8760503 3.8760503) with tilt (0 0 0)
  triclinic box = (0 0 0) to (3.9168508 3.9168508 3.8760503) with tilt (0 0 0)
  triclinic box = (0 0 0) to (3.9168508 3.9168508 3.9168508) with tilt (0 0 0)
  triclinic box = (0 0 0) to (3.9168508 3.9168508 3.9168508) with tilt (0 0 0)
  triclinic box = (0 0 0) to (3.9168508 3.9168508 3.9168508) with tilt (0 0 0)
  triclinic box = (0 0 0) to (3.9168508 3.9168508 3.9168508) with tilt (0 0 0)
echo none
run 0
WARNING: No fixes with time integration, atoms won't move (src/src/verlet.cpp:60)
Per MPI rank memory allocation (min/avg/max) = 3.245 | 3.245 | 3.245 Mbytes
    PotEng          Pxx           E_mol          E_coul    
-15.125036      275931.2       0              0            
Loop time of 1.083e-06 on 1 procs for 0 steps with 4 atoms

184.7% CPU use with 1 MPI tasks x no OpenMP threads

MPI task timing breakdown:
Section |  min time  |  avg time  |  max time  |%varavg| %total
---------------------------------------------------------------
Pair    | 0          | 0          | 0          |   0.0 |  0.00
Neigh   | 0          | 0          | 0          |   0.0 |  0.00
Comm    | 0          | 0          | 0          |   0.0 |  0.00
Output  | 0          | 0          | 0          |   0.0 |  0.00
Modify  | 0          | 0          | 0          |   0.0 |  0.00
Other   |            | 1.083e-06  |            |       |100.00

Nlocal:              4 ave           4 max           4 min
Histogram: 1 0 0 0 0 0 0 0 0 0
Nghost:            662 ave         662 max         662 min
Histogram: 1 0 0 0 0 0 0 0 0 0
Neighs:            352 ave         352 max         352 min
Histogram: 1 0 0 0 0 0 0 0 0 0

Total # of neighbors = 352
Ave neighs/atom = 88
Neighbor list builds = 0
Dangerous builds = 0
set atom * x 0.0 y 0.0 z 0.0
Setting atom values ...
  4 settings made for x
  4 settings made for y
  4 settings made for z
change_box all     x final 0 3.95765132263935 y final 0 3.95765132263935 z final 0 3.95765132263935      xy final 0.0 xz final 0.0 yz final 0.0 units box
Changing box ...
  triclinic box = (0 0 0) to (3.9576513 3.9168508 3.9168508) with tilt (0 0 0)
  triclinic box = (0 0 0) to (3.9576513 3.9576513 3.9168508) with tilt (0 0 0)
  triclinic box = (0 0 0) to (3.9576513 3.9576513 3.9576513) with tilt (0 0 0)
  triclinic box = (0 0 0) to (3.9576513 3.9576513 3.9576513) with tilt (0 0 0)
  triclinic box = (0 0 0) to (3.9576513 3.9576513 3.9576513) with tilt (0 0 0)
  triclinic box = (0 0 0) to (3.9576513 3.9576513 3.9576513) with tilt (0 0 0)
echo none
run 0
WARNING: No fixes with time integration, atoms won't move (src/src/verlet.cpp:60)
Per MPI rank memory allocation (min/avg/max) = 3.245 | 3.245 | 3.245 Mbytes
    PotEng          Pxx           E_mol          E_coul    
-15.399164      189393.59      0              0            
Loop time of 8.34e-07 on 1 procs for 0 steps with 4 atoms

0.0% CPU use with 1 MPI tasks x no OpenMP threads

MPI task timing breakdown:
Section |  min time  |  avg time  |  max time  |%varavg| %total
---------------------------------------------------------------
Pair    | 0          | 0          | 0          |   0.0 |  0.00
Neigh   | 0          | 0          | 0          |   0.0 |  0.00
Comm    | 0          | 0          | 0          |   0.0 |  0.00
Output  | 0          | 0          | 0          |   0.0 |  0.00
Modify  | 0          | 0          | 0          |   0.0 |  0.00
Other   |            | 8.34e-07   |            |       |100.00

Nlocal:              4 ave           4 max           4 min
Histogram: 1 0 0 0 0 0 0 0 0 0
Nghost:            662 ave         662 max         662 min
Histogram: 1 0 0 0 0 0 0 0 0 0
Neighs:            352 ave         352 max         352 min
Histogram: 1 0 0 0 0 0 0 0 0 0

Total # of neighbors = 352
Ave neighs/atom = 88
Neighbor list builds = 0
Dangerous builds = 0
set atom * x 0.0 y 0.0 z 0.0
Setting atom values ...
  4 settings made for x
  4 settings made for y
  4 settings made for z
change_box all     x final 0 3.998451851738725 y final 0 3.998451851738725 z final 0 3.998451851738725      xy final 0.0 xz final 0.0 yz final 0.0 units box
Changing box ...
  triclinic box = (0 0 0) to (3.9984519 3.9576513 3.9576513) with tilt (0 0 0)
  triclinic box = (0 0 0) to (3.9984519 3.9984519 3.9576513) with tilt (0 0 0)
  triclinic box = (0 0 0) to (3.9984519 3.9984519 3.9984519) with tilt (0 0 0)
  triclinic box = (0 0 0) to (3.9984519 3.9984519 3.9984519) with tilt (0 0 0)
  triclinic box = (0 0 0) to (3.9984519 3.9984519 3.9984519) with tilt (0 0 0)
  triclinic box = (0 0 0) to (3.9984519 3.9984519 3.9984519) with tilt (0 0 0)
echo none
run 0
WARNING: No fixes with time integration, atoms won't move (src/src/verlet.cpp:60)
Per MPI rank memory allocation (min/avg/max) = 3.245 | 3.245 | 3.245 Mbytes
    PotEng          Pxx           E_mol          E_coul    
-15.582331      116611.51      0              0            
Loop time of 7.92e-07 on 1 procs for 0 steps with 4 atoms

252.5% CPU use with 1 MPI tasks x no OpenMP threads

MPI task timing breakdown:
Section |  min time  |  avg time  |  max time  |%varavg| %total
---------------------------------------------------------------
Pair    | 0          | 0          | 0          |   0.0 |  0.00
Neigh   | 0          | 0          | 0          |   0.0 |  0.00
Comm    | 0          | 0          | 0          |   0.0 |  0.00
Output  | 0          | 0          | 0          |   0.0 |  0.00
Modify  | 0          | 0          | 0          |   0.0 |  0.00
Other   |            | 7.92e-07   |            |       |100.00

Nlocal:              4 ave           4 max           4 min
Histogram: 1 0 0 0 0 0 0 0 0 0
Nghost:            662 ave         662 max         662 min
Histogram: 1 0 0 0 0 0 0 0 0 0
Neighs:            280 ave         280 max         280 min
Histogram: 1 0 0 0 0 0 0 0 0 0

Total # of neighbors = 280
Ave neighs/atom = 70
Neighbor list builds = 0
Dangerous builds = 0
set atom * x 0.0 y 0.0 z 0.0
Setting atom values ...
  4 settings made for x
  4 settings made for y
  4 settings made for z
change_box all     x final 0 4.0392523808381 y final 0 4.0392523808381 z final 0 4.0392523808381      xy final 0.0 xz final 0.0 yz final 0.0 units box
Changing box ...
  triclinic box = (0 0 0) to (4.0392524 3.9984519 3.9984519) with tilt (0 0 0)
  triclinic box = (0 0 0) to (4.0392524 4.0392524 3.9984519) with tilt (0 0 0)
  triclinic box = (0 0 0) to (4.0392524 4.0392524 4.0392524) with tilt (0 0 0)
  triclinic box = (0 0 0) to (4.0392524 4.0392524 4.0392524) with tilt (0 0 0)
  triclinic box = (0 0 0) to (4.0392524 4.0392524 4.0392524) with tilt (0 0 0)
  triclinic box = (0 0 0) to (4.0392524 4.0392524 4.0392524) with tilt (0 0 0)
echo none
run 0
WARNING: No fixes with time integration, atoms won't move (src/src/verlet.cpp:60)
Per MPI rank memory allocation (min/avg/max) = 3.245 | 3.245 | 3.245 Mbytes
    PotEng          Pxx           E_mol          E_coul    
-15.686836      54276.631      0              0            
Loop time of 1e-06 on 1 procs for 0 steps with 4 atoms

300.0% CPU use with 1 MPI tasks x no OpenMP threads

MPI task timing breakdown:
Section |  min time  |  avg time  |  max time  |%varavg| %total
---------------------------------------------------------------
Pair    | 0          | 0          | 0          |   0.0 |  0.00
Neigh   | 0          | 0          | 0          |   0.0 |  0.00
Comm    | 0          | 0          | 0          |   0.0 |  0.00
Output  | 0          | 0          | 0          |   0.0 |  0.00
Modify  | 0          | 0          | 0          |   0.0 |  0.00
Other   |            | 1e-06      |            |       |100.00

Nlocal:              4 ave           4 max           4 min
Histogram: 1 0 0 0 0 0 0 0 0 0
Nghost:            662 ave         662 max         662 min
Histogram: 1 0 0 0 0 0 0 0 0 0
Neighs:            280 ave         280 max         280 min
Histogram: 1 0 0 0 0 0 0 0 0 0

Total # of neighbors = 280
Ave neighs/atom = 70
Neighbor list builds = 0
Dangerous builds = 0
set atom * x 0.0 y 0.0 z 0.0
Setting atom values ...
  4 settings made for x
  4 settings made for y
  4 settings made for z
change_box all     x final 0 4.080052909937474 y final 0 4.080052909937474 z final 0 4.080052909937474      xy final 0.0 xz final 0.0 yz final 0.0 units box
Changing box ...
  triclinic box = (0 0 0) to (4.0800529 4.0392524 4.0392524) with tilt (0 0 0)
  triclinic box = (0 0 0) to (4.0800529 4.0800529 4.0392524) with tilt (0 0 0)
  triclinic box = (0 0 0) to (4.0800529 4.0800529 4.0800529) with tilt (0 0 0)
  triclinic box = (0 0 0) to (4.0800529 4.0800529 4.0800529) with tilt (0 0 0)
  triclinic box = (0 0 0) to (4.0800529 4.0800529 4.0800529) with tilt (0 0 0)
  triclinic box = (0 0 0) to (4.0800529 4.0800529 4.0800529) with tilt (0 0 0)
echo none
run 0
WARNING: No fixes with time integration, atoms won't move (src/src/verlet.cpp:60)
Per MPI rank memory allocation (min/avg/max) = 3.245 | 3.245 | 3.245 Mbytes
    PotEng          Pxx           E_mol          E_coul    
-15.72002       0.63082908     0              0            
Loop time of 9.58e-07 on 1 procs for 0 steps with 4 atoms

0.0% CPU use with 1 MPI tasks x no OpenMP threads

MPI task timing breakdown:
Section |  min time  |  avg time  |  max time  |%varavg| %total
---------------------------------------------------------------
Pair    | 0          | 0          | 0          |   0.0 |  0.00
Neigh   | 0          | 0          | 0          |   0.0 |  0.00
Comm    | 0          | 0          | 0          |   0.0 |  0.00
Output  | 0          | 0          | 0          |   0.0 |  0.00
Modify  | 0          | 0          | 0          |   0.0 |  0.00
Other   |            | 9.58e-07   |            |       |100.00

Nlocal:              4 ave           4 max           4 min
Histogram: 1 0 0 0 0 0 0 0 0 0
Nghost:            662 ave         662 max         662 min
Histogram: 1 0 0 0 0 0 0 0 0 0
Neighs:            280 ave         280 max         280 min
Histogram: 1 0 0 0 0 0 0 0 0 0

Total # of neighbors = 280
Ave neighs/atom = 70
Neighbor list builds = 0
Dangerous builds = 0
set atom * x 0.0 y 0.0 z 0.0
Setting atom values ...
  4 settings made for x
  4 settings made for y
  4 settings made for z
change_box all     x final 0 4.12085343903685 y final 0 4.12085343903685 z final 0 4.12085343903685      xy final 0.0 xz final 0.0 yz final 0.0 units box
Changing box ...
  triclinic box = (0 0 0) to (4.1208534 4.0800529 4.0800529) with tilt (0 0 0)
  triclinic box = (0 0 0) to (4.1208534 4.1208534 4.0800529) with tilt (0 0 0)
  triclinic box = (0 0 0) to (4.1208534 4.1208534 4.1208534) with tilt (0 0 0)
  triclinic box = (0 0 0) to (4.1208534 4.1208534 4.1208534) with tilt (0 0 0)
  triclinic box = (0 0 0) to (4.1208534 4.1208534 4.1208534) with tilt (0 0 0)
  triclinic box = (0 0 0) to (4.1208534 4.1208534 4.1208534) with tilt (0 0 0)
echo none
run 0
WARNING: No fixes with time integration, atoms won't move (src/src/verlet.cpp:60)
Per MPI rank memory allocation (min/avg/max) = 3.245 | 3.245 | 3.245 Mbytes
    PotEng          Pxx           E_mol          E_coul    
-15.68952      -45944.722      0              0            
Loop time of 1.125e-06 on 1 procs for 0 steps with 4 atoms

0.0% CPU use with 1 MPI tasks x no OpenMP threads

MPI task timing breakdown:
Section |  min time  |  avg time  |  max time  |%varavg| %total
---------------------------------------------------------------
Pair    | 0          | 0          | 0          |   0.0 |  0.00
Neigh   | 0          | 0          | 0          |   0.0 |  0.00
Comm    | 0          | 0          | 0          |   0.0 |  0.00
Output  | 0          | 0          | 0          |   0.0 |  0.00
Modify  | 0          | 0          | 0          |   0.0 |  0.00
Other   |            | 1.125e-06  |            |       |100.00

Nlocal:              4 ave           4 max           4 min
Histogram: 1 0 0 0 0 0 0 0 0 0
Nghost:            662 ave         662 max         662 min
Histogram: 1 0 0 0 0 0 0 0 0 0
Neighs:            280 ave         280 max         280 min
Histogram: 1 0 0 0 0 0 0 0 0 0

Total # of neighbors = 280
Ave neighs/atom = 70
Neighbor list builds = 0
Dangerous builds = 0
set atom * x 0.0 y 0.0 z 0.0
Setting atom values ...
  4 settings made for x
  4 settings made for y
  4 settings made for z
change_box all     x final 0 4.161653968136224 y final 0 4.161653968136224 z final 0 4.161653968136224      xy final 0.0 xz final 0.0 yz final 0.0 units box
Changing box ...
  triclinic box = (0 0 0) to (4.161654 4.1208534 4.1208534) with tilt (0 0 0)
  triclinic box = (0 0 0) to (4.161654 4.161654 4.1208534) with tilt (0 0 0)
  triclinic box = (0 0 0) to (4.161654 4.161654 4.161654) with tilt (0 0 0)
  triclinic box = (0 0 0) to (4.161654 4.161654 4.161654) with tilt (0 0 0)
  triclinic box = (0 0 0) to (4.161654 4.161654 4.161654) with tilt (0 0 0)
  triclinic box = (0 0 0) to (4.161654 4.161654 4.161654) with tilt (0 0 0)
echo none
run 0
WARNING: No fixes with time integration, atoms won't move (src/src/verlet.cpp:60)
Per MPI rank memory allocation (min/avg/max) = 3.245 | 3.245 | 3.245 Mbytes
    PotEng          Pxx           E_mol          E_coul    
-15.603527     -83930.505      0              0            
Loop time of 7.92e-07 on 1 procs for 0 steps with 4 atoms

0.0% CPU use with 1 MPI tasks x no OpenMP threads

MPI task timing breakdown:
Section |  min time  |  avg time  |  max time  |%varavg| %total
---------------------------------------------------------------
Pair    | 0          | 0          | 0          |   0.0 |  0.00
Neigh   | 0          | 0          | 0          |   0.0 |  0.00
Comm    | 0          | 0          | 0          |   0.0 |  0.00
Output  | 0          | 0          | 0          |   0.0 |  0.00
Modify  | 0          | 0          | 0          |   0.0 |  0.00
Other   |            | 7.92e-07   |            |       |100.00

Nlocal:              4 ave           4 max           4 min
Histogram: 1 0 0 0 0 0 0 0 0 0
Nghost:            662 ave         662 max         662 min
Histogram: 1 0 0 0 0 0 0 0 0 0
Neighs:            280 ave         280 max         280 min
Histogram: 1 0 0 0 0 0 0 0 0 0

Total # of neighbors = 280
Ave neighs/atom = 70
Neighbor list builds = 0
Dangerous builds = 0
set atom * x 0.0 y 0.0 z 0.0
Setting atom values ...
  4 settings made for x
  4 settings made for y
  4 settings made for z
change_box all     x final 0 4.2024544972356 y final 0 4.2024544972356 z final 0 4.2024544972356      xy final 0.0 xz final 0.0 yz final 0.0 units box
Changing box ...
  triclinic box = (0 0 0) to (4.2024545 4.161654 4.161654) with tilt (0 0 0)
  triclinic box = (0 0 0) to (4.2024545 4.2024545 4.161654) with tilt (0 0 0)
  triclinic box = (0 0 0) to (4.2024545 4.2024545 4.2024545) with tilt (0 0 0)
  triclinic box = (0 0 0) to (4.2024545 4.2024545 4.2024545) with tilt (0 0 0)
  triclinic box = (0 0 0) to (4.2024545 4.2024545 4.2024545) with tilt (0 0 0)
  triclinic box = (0 0 0) to (4.2024545 4.2024545 4.2024545) with tilt (0 0 0)
echo none
run 0
WARNING: No fixes with time integration, atoms won't move (src/src/verlet.cpp:60)
Per MPI rank memory allocation (min/avg/max) = 3.245 | 3.245 | 3.245 Mbytes
    PotEng          Pxx           E_mol          E_coul    
-15.469937     -114846.1       0              0            
Loop time of 1.084e-06 on 1 procs for 0 steps with 4 atoms

92.3% CPU use with 1 MPI tasks x no OpenMP threads

MPI task timing breakdown:
Section |  min time  |  avg time  |  max time  |%varavg| %total
---------------------------------------------------------------
Pair    | 0          | 0          | 0          |   0.0 |  0.00
Neigh   | 0          | 0          | 0          |   0.0 |  0.00
Comm    | 0          | 0          | 0          |   0.0 |  0.00
Output  | 0          | 0          | 0          |   0.0 |  0.00
Modify  | 0          | 0          | 0          |   0.0 |  0.00
Other   |            | 1.084e-06  |            |       |100.00

Nlocal:              4 ave           4 max           4 min
Histogram: 1 0 0 0 0 0 0 0 0 0
Nghost:            662 ave         662 max         662 min
Histogram: 1 0 0 0 0 0 0 0 0 0
Neighs:            280 ave         280 max         280 min
Histogram: 1 0 0 0 0 0 0 0 0 0

Total # of neighbors = 280
Ave neighs/atom = 70
Neighbor list builds = 0
Dangerous builds = 0
set atom * x 0.0 y 0.0 z 0.0
Setting atom values ...
  4 settings made for x
  4 settings made for y
  4 settings made for z
change_box all     x final 0 4.243255026334973 y final 0 4.243255026334973 z final 0 4.243255026334973      xy final 0.0 xz final 0.0 yz final 0.0 units box
Changing box ...
  triclinic box = (0 0 0) to (4.243255 4.2024545 4.2024545) with tilt (0 0 0)
  triclinic box = (0 0 0) to (4.243255 4.243255 4.2024545) with tilt (0 0 0)
  triclinic box = (0 0 0) to (4.243255 4.243255 4.243255) with tilt (0 0 0)
  triclinic box = (0 0 0) to (4.243255 4.243255 4.243255) with tilt (0 0 0)
  triclinic box = (0 0 0) to (4.243255 4.243255 4.243255) with tilt (0 0 0)
  triclinic box = (0 0 0) to (4.243255 4.243255 4.243255) with tilt (0 0 0)
echo none
run 0
WARNING: No fixes with time integration, atoms won't move (src/src/verlet.cpp:60)
Per MPI rank memory allocation (min/avg/max) = 3.221 | 3.221 | 3.221 Mbytes
    PotEng          Pxx           E_mol          E_coul    
-15.295683     -140045.53      0              0            
Loop time of 1.083e-06 on 1 procs for 0 steps with 4 atoms

92.3% CPU use with 1 MPI tasks x no OpenMP threads

MPI task timing breakdown:
Section |  min time  |  avg time  |  max time  |%varavg| %total
---------------------------------------------------------------
Pair    | 0          | 0          | 0          |   0.0 |  0.00
Neigh   | 0          | 0          | 0          |   0.0 |  0.00
Comm    | 0          | 0          | 0          |   0.0 |  0.00
Output  | 0          | 0          | 0          |   0.0 |  0.00
Modify  | 0          | 0          | 0          |   0.0 |  0.00
Other   |            | 1.083e-06  |            |       |100.00

Nlocal:              4 ave           4 max           4 min
Histogram: 1 0 0 0 0 0 0 0 0 0
Nghost:            360 ave         360 max         360 min
Histogram: 1 0 0 0 0 0 0 0 0 0
Neighs:            268 ave         268 max         268 min
Histogram: 1 0 0 0 0 0 0 0 0 0

Total # of neighbors = 268
Ave neighs/atom = 67
Neighbor list builds = 0
Dangerous builds = 0
set atom * x 0.0 y 0.0 z 0.0
Setting atom values ...
  4 settings made for x
  4 settings made for y
  4 settings made for z
change_box all     x final 0 4.284055555434349 y final 0 4.284055555434349 z final 0 4.284055555434349      xy final 0.0 xz final 0.0 yz final 0.0 units box
Changing box ...
  triclinic box = (0 0 0) to (4.2840556 4.243255 4.243255) with tilt (0 0 0)
  triclinic box = (0 0 0) to (4.2840556 4.2840556 4.243255) with tilt (0 0 0)
  triclinic box = (0 0 0) to (4.2840556 4.2840556 4.2840556) with tilt (0 0 0)
  triclinic box = (0 0 0) to (4.2840556 4.2840556 4.2840556) with tilt (0 0 0)
  triclinic box = (0 0 0) to (4.2840556 4.2840556 4.2840556) with tilt (0 0 0)
  triclinic box = (0 0 0) to (4.2840556 4.2840556 4.2840556) with tilt (0 0 0)
echo none
run 0
WARNING: No fixes with time integration, atoms won't move (src/src/verlet.cpp:60)
Per MPI rank memory allocation (min/avg/max) = 3.221 | 3.221 | 3.221 Mbytes
    PotEng          Pxx           E_mol          E_coul    
-15.086339     -160670.97      0              0            
Loop time of 7.5e-07 on 1 procs for 0 steps with 4 atoms

133.3% CPU use with 1 MPI tasks x no OpenMP threads

MPI task timing breakdown:
Section |  min time  |  avg time  |  max time  |%varavg| %total
---------------------------------------------------------------
Pair    | 0          | 0          | 0          |   0.0 |  0.00
Neigh   | 0          | 0          | 0          |   0.0 |  0.00
Comm    | 0          | 0          | 0          |   0.0 |  0.00
Output  | 0          | 0          | 0          |   0.0 |  0.00
Modify  | 0          | 0          | 0          |   0.0 |  0.00
Other   |            | 7.5e-07    |            |       |100.00

Nlocal:              4 ave           4 max           4 min
Histogram: 1 0 0 0 0 0 0 0 0 0
Nghost:            360 ave         360 max         360 min
Histogram: 1 0 0 0 0 0 0 0 0 0
Neighs:            268 ave         268 max         268 min
Histogram: 1 0 0 0 0 0 0 0 0 0

Total # of neighbors = 268
Ave neighs/atom = 67
Neighbor list builds = 0
Dangerous builds = 0
set atom * x 0.0 y 0.0 z 0.0
Setting atom values ...
  4 settings made for x
  4 settings made for y
  4 settings made for z
change_box all     x final 0 4.324856084533723 y final 0 4.324856084533723 z final 0 4.324856084533723      xy final 0.0 xz final 0.0 yz final 0.0 units box
Changing box ...
  triclinic box = (0 0 0) to (4.3248561 4.2840556 4.2840556) with tilt (0 0 0)
  triclinic box = (0 0 0) to (4.3248561 4.3248561 4.2840556) with tilt (0 0 0)
  triclinic box = (0 0 0) to (4.3248561 4.3248561 4.3248561) with tilt (0 0 0)
  triclinic box = (0 0 0) to (4.3248561 4.3248561 4.3248561) with tilt (0 0 0)
  triclinic box = (0 0 0) to (4.3248561 4.3248561 4.3248561) with tilt (0 0 0)
  triclinic box = (0 0 0) to (4.3248561 4.3248561 4.3248561) with tilt (0 0 0)
echo none
run 0
WARNING: No fixes with time integration, atoms won't move (src/src/verlet.cpp:60)
Per MPI rank memory allocation (min/avg/max) = 3.221 | 3.221 | 3.221 Mbytes
    PotEng          Pxx           E_mol          E_coul    
-14.846536     -177521.74      0              0            
Loop time of 9.17e-07 on 1 procs for 0 steps with 4 atoms

109.1% CPU use with 1 MPI tasks x no OpenMP threads

MPI task timing breakdown:
Section |  min time  |  avg time  |  max time  |%varavg| %total
---------------------------------------------------------------
Pair    | 0          | 0          | 0          |   0.0 |  0.00
Neigh   | 0          | 0          | 0          |   0.0 |  0.00
Comm    | 0          | 0          | 0          |   0.0 |  0.00
Output  | 0          | 0          | 0          |   0.0 |  0.00
Modify  | 0          | 0          | 0          |   0.0 |  0.00
Other   |            | 9.17e-07   |            |       |100.00

Nlocal:              4 ave           4 max           4 min
Histogram: 1 0 0 0 0 0 0 0 0 0
Nghost:            360 ave         360 max         360 min
Histogram: 1 0 0 0 0 0 0 0 0 0
Neighs:            268 ave         268 max         268 min
Histogram: 1 0 0 0 0 0 0 0 0 0

Total # of neighbors = 268
Ave neighs/atom = 67
Neighbor list builds = 0
Dangerous builds = 0
set atom * x 0.0 y 0.0 z 0.0
Setting atom values ...
  4 settings made for x
  4 settings made for y
  4 settings made for z
change_box all     x final 0 4.3656566136330985 y final 0 4.3656566136330985 z final 0 4.3656566136330985      xy final 0.0 xz final 0.0 yz final 0.0 units box
Changing box ...
  triclinic box = (0 0 0) to (4.3656566 4.3248561 4.3248561) with tilt (0 0 0)
  triclinic box = (0 0 0) to (4.3656566 4.3656566 4.3248561) with tilt (0 0 0)
  triclinic box = (0 0 0) to (4.3656566 4.3656566 4.3656566) with tilt (0 0 0)
  triclinic box = (0 0 0) to (4.3656566 4.3656566 4.3656566) with tilt (0 0 0)
  triclinic box = (0 0 0) to (4.3656566 4.3656566 4.3656566) with tilt (0 0 0)
  triclinic box = (0 0 0) to (4.3656566 4.3656566 4.3656566) with tilt (0 0 0)
echo none
run 0
WARNING: No fixes with time integration, atoms won't move (src/src/verlet.cpp:60)
Per MPI rank memory allocation (min/avg/max) = 3.221 | 3.221 | 3.221 Mbytes
    PotEng          Pxx           E_mol          E_coul    
-14.580217     -191196.65      0              0            
Loop time of 1e-06 on 1 procs for 0 steps with 4 atoms

200.0% CPU use with 1 MPI tasks x no OpenMP threads

MPI task timing breakdown:
Section |  min time  |  avg time  |  max time  |%varavg| %total
---------------------------------------------------------------
Pair    | 0          | 0          | 0          |   0.0 |  0.00
Neigh   | 0          | 0          | 0          |   0.0 |  0.00
Comm    | 0          | 0          | 0          |   0.0 |  0.00
Output  | 0          | 0          | 0          |   0.0 |  0.00
Modify  | 0          | 0          | 0          |   0.0 |  0.00
Other   |            | 1e-06      |            |       |100.00

Nlocal:              4 ave           4 max           4 min
Histogram: 1 0 0 0 0 0 0 0 0 0
Nghost:            360 ave         360 max         360 min
Histogram: 1 0 0 0 0 0 0 0 0 0
Neighs:            268 ave         268 max         268 min
Histogram: 1 0 0 0 0 0 0 0 0 0

Total # of neighbors = 268
Ave neighs/atom = 67
Neighbor list builds = 0
Dangerous builds = 0
set atom * x 0.0 y 0.0 z 0.0
Setting atom values ...
  4 settings made for x
  4 settings made for y
  4 settings made for z
change_box all     x final 0 4.406457142732473 y final 0 4.406457142732473 z final 0 4.406457142732473      xy final 0.0 xz final 0.0 yz final 0.0 units box
Changing box ...
  triclinic box = (0 0 0) to (4.4064571 4.3656566 4.3656566) with tilt (0 0 0)
  triclinic box = (0 0 0) to (4.4064571 4.4064571 4.3656566) with tilt (0 0 0)
  triclinic box = (0 0 0) to (4.4064571 4.4064571 4.4064571) with tilt (0 0 0)
  triclinic box = (0 0 0) to (4.4064571 4.4064571 4.4064571) with tilt (0 0 0)
  triclinic box = (0 0 0) to (4.4064571 4.4064571 4.4064571) with tilt (0 0 0)
  triclinic box = (0 0 0) to (4.4064571 4.4064571 4.4064571) with tilt (0 0 0)
echo none
run 0
WARNING: No fixes with time integration, atoms won't move (src/src/verlet.cpp:60)
Per MPI rank memory allocation (min/avg/max) = 3.221 | 3.221 | 3.221 Mbytes
    PotEng          Pxx           E_mol          E_coul    
-14.290844     -202127.1       0              0            
Loop time of 9.58e-07 on 1 procs for 0 steps with 4 atoms

208.8% CPU use with 1 MPI tasks x no OpenMP threads

MPI task timing breakdown:
Section |  min time  |  avg time  |  max time  |%varavg| %total
---------------------------------------------------------------
Pair    | 0          | 0          | 0          |   0.0 |  0.00
Neigh   | 0          | 0          | 0          |   0.0 |  0.00
Comm    | 0          | 0          | 0          |   0.0 |  0.00
Output  | 0          | 0          | 0          |   0.0 |  0.00
Modify  | 0          | 0          | 0          |   0.0 |  0.00
Other   |            | 9.58e-07   |            |       |100.00

Nlocal:              4 ave           4 max           4 min
Histogram: 1 0 0 0 0 0 0 0 0 0
Nghost:            360 ave         360 max         360 min
Histogram: 1 0 0 0 0 0 0 0 0 0
Neighs:            268 ave         268 max         268 min
Histogram: 1 0 0 0 0 0 0 0 0 0

Total # of neighbors = 268
Ave neighs/atom = 67
Neighbor list builds = 0
Dangerous builds = 0
set atom * x 0.0 y 0.0 z 0.0
Setting atom values ...
  4 settings made for x
  4 settings made for y
  4 settings made for z
change_box all     x final 0 4.4472576718318475 y final 0 4.4472576718318475 z final 0 4.4472576718318475      xy final 0.0 xz final 0.0 yz final 0.0 units box
Changing box ...
  triclinic box = (0 0 0) to (4.4472577 4.4064571 4.4064571) with tilt (0 0 0)
  triclinic box = (0 0 0) to (4.4472577 4.4472577 4.4064571) with tilt (0 0 0)
  triclinic box = (0 0 0) to (4.4472577 4.4472577 4.4472577) with tilt (0 0 0)
  triclinic box = (0 0 0) to (4.4472577 4.4472577 4.4472577) with tilt (0 0 0)
  triclinic box = (0 0 0) to (4.4472577 4.4472577 4.4472577) with tilt (0 0 0)
  triclinic box = (0 0 0) to (4.4472577 4.4472577 4.4472577) with tilt (0 0 0)
echo none
run 0
WARNING: No fixes with time integration, atoms won't move (src/src/verlet.cpp:60)
Per MPI rank memory allocation (min/avg/max) = 3.221 | 3.221 | 3.221 Mbytes
    PotEng          Pxx           E_mol          E_coul    
-13.981552     -210635.09      0              0            
Loop time of 1.041e-06 on 1 procs for 0 steps with 4 atoms

192.1% CPU use with 1 MPI tasks x no OpenMP threads

MPI task timing breakdown:
Section |  min time  |  avg time  |  max time  |%varavg| %total
---------------------------------------------------------------
Pair    | 0          | 0          | 0          |   0.0 |  0.00
Neigh   | 0          | 0          | 0          |   0.0 |  0.00
Comm    | 0          | 0          | 0          |   0.0 |  0.00
Output  | 0          | 0          | 0          |   0.0 |  0.00
Modify  | 0          | 0          | 0          |   0.0 |  0.00
Other   |            | 1.041e-06  |            |       |100.00

Nlocal:              4 ave           4 max           4 min
Histogram: 1 0 0 0 0 0 0 0 0 0
Nghost:            360 ave         360 max         360 min
Histogram: 1 0 0 0 0 0 0 0 0 0
Neighs:            268 ave         268 max         268 min
Histogram: 1 0 0 0 0 0 0 0 0 0

Total # of neighbors = 268
Ave neighs/atom = 67
Neighbor list builds = 0
Dangerous builds = 0
set atom * x 0.0 y 0.0 z 0.0
Setting atom values ...
  4 settings made for x
  4 settings made for y
  4 settings made for z
change_box all     x final 0 4.4880582009312215 y final 0 4.4880582009312215 z final 0 4.4880582009312215      xy final 0.0 xz final 0.0 yz final 0.0 units box
Changing box ...
  triclinic box = (0 0 0) to (4.4880582 4.4472577 4.4472577) with tilt (0 0 0)
  triclinic box = (0 0 0) to (4.4880582 4.4880582 4.4472577) with tilt (0 0 0)
  triclinic box = (0 0 0) to (4.4880582 4.4880582 4.4880582) with tilt (0 0 0)
  triclinic box = (0 0 0) to (4.4880582 4.4880582 4.4880582) with tilt (0 0 0)
  triclinic box = (0 0 0) to (4.4880582 4.4880582 4.4880582) with tilt (0 0 0)
  triclinic box = (0 0 0) to (4.4880582 4.4880582 4.4880582) with tilt (0 0 0)
echo none
run 0
WARNING: No fixes with time integration, atoms won't move (src/src/verlet.cpp:60)
Per MPI rank memory allocation (min/avg/max) = 3.221 | 3.221 | 3.221 Mbytes
    PotEng          Pxx           E_mol          E_coul    
-13.655242     -216982.74      0              0            
Loop time of 8.75e-07 on 1 procs for 0 steps with 4 atoms

0.0% CPU use with 1 MPI tasks x no OpenMP threads

MPI task timing breakdown:
Section |  min time  |  avg time  |  max time  |%varavg| %total
---------------------------------------------------------------
Pair    | 0          | 0          | 0          |   0.0 |  0.00
Neigh   | 0          | 0          | 0          |   0.0 |  0.00
Comm    | 0          | 0          | 0          |   0.0 |  0.00
Output  | 0          | 0          | 0          |   0.0 |  0.00
Modify  | 0          | 0          | 0          |   0.0 |  0.00
Other   |            | 8.75e-07   |            |       |100.00

Nlocal:              4 ave           4 max           4 min
Histogram: 1 0 0 0 0 0 0 0 0 0
Nghost:            360 ave         360 max         360 min
Histogram: 1 0 0 0 0 0 0 0 0 0
Neighs:            268 ave         268 max         268 min
Histogram: 1 0 0 0 0 0 0 0 0 0

Total # of neighbors = 268
Ave neighs/atom = 67
Neighbor list builds = 0
Dangerous builds = 0
set atom * x 0.0 y 0.0 z 0.0
Setting atom values ...
  4 settings made for x
  4 settings made for y
  4 settings made for z
change_box all     x final 0 12.240158729812421 y final 0 12.240158729812421 z final 0 12.240158729812421      xy final 0.0 xz final 0.0 yz final 0.0 units box
Changing box ...
  triclinic box = (0 0 0) to (12.240159 4.4880582 4.4880582) with tilt (0 0 0)
  triclinic box = (0 0 0) to (12.240159 12.240159 4.4880582) with tilt (0 0 0)
  triclinic box = (0 0 0) to (12.240159 12.240159 12.240159) with tilt (0 0 0)
  triclinic box = (0 0 0) to (12.240159 12.240159 12.240159) with tilt (0 0 0)
  triclinic box = (0 0 0) to (12.240159 12.240159 12.240159) with tilt (0 0 0)
  triclinic box = (0 0 0) to (12.240159 12.240159 12.240159) with tilt (0 0 0)
echo none
Created 104 atoms
  using lattice units in triclinic box = (0 0 0) to (12.240159 12.240159 12.240159) with tilt (0 0 0)
  create_atoms CPU = 0.000 seconds
Setting atom values ...
  1 settings made for type
Setting atom values ...
  1 settings made for type
Setting atom values ...
  1 settings made for type
Setting atom values ...
  1 settings made for type
Setting atom values ...
  1 settings made for type
Setting atom values ...
  1 settings made for type
Setting atom values ...
  1 settings made for type
Setting atom values ...
  1 settings made for type
Setting atom values ...
  1 settings made for type
Setting atom values ...
  1 settings made for type
Setting atom values ...
  1 settings made for type
Setting atom values ...
  1 settings made for type
Setting atom values ...
  1 settings made for type
Setting atom values ...
  1 settings made for type
Setting atom values ...
  1 settings made for type
Setting atom values ...
  1 settings made for type
Setting atom values ...
  1 settings made for type
Setting atom values ...
  1 settings made for type
Setting atom values ...
  1 settings made for type
Setting atom values ...
  1 settings made for type
Setting atom values ...
  1 settings made for type
Setting atom values ...
  1 settings made for type
Setting atom values ...
  1 settings made for type
Setting atom values ...
  1 settings made for type
Setting atom values ...
  1 settings made for type
Setting atom values ...
  1 settings made for type
Setting atom values ...
  1 settings made for type
Setting atom values ...
  1 settings made for type
Setting atom values ...
  1 settings made for type
Setting atom values ...
  1 settings made for type
Setting atom values ...
  1 settings made for type
Setting atom values ...
  1 settings made for type
Setting atom values ...
  1 settings made for type
Setting atom values ...
  1 settings made for type
Setting atom values ...
  1 settings made for type
Setting atom values ...
  1 settings made for type
Setting atom values ...
  1 settings made for type
Setting atom values ...
  1 settings made for type
Setting atom values ...
  1 settings made for type
Setting atom values ...
  1 settings made for type
Setting atom values ...
  1 settings made for type
Setting atom values ...
  1 settings made for type
Setting atom values ...
  1 settings made for type
Setting atom values ...
  1 settings made for type
Setting atom values ...
  1 settings made for type
Setting atom values ...
  1 settings made for type
Setting atom values ...
  1 settings made for type
Setting atom values ...
  1 settings made for type
Setting atom values ...
  1 settings made for type
Setting atom values ...
  1 settings made for type
Setting atom values ...
  1 settings made for type
Setting atom values ...
  1 settings made for type
Setting atom values ...
  1 settings made for type
Setting atom values ...
  1 settings made for type
Setting atom values ...
  1 settings made for type
Setting atom values ...
  1 settings made for type
Setting atom values ...
  1 settings made for type
Setting atom values ...
  1 settings made for type
Setting atom values ...
  1 settings made for type
Setting atom values ...
  1 settings made for type
Setting atom values ...
  1 settings made for type
Setting atom values ...
  1 settings made for type
Setting atom values ...
  1 settings made for type
Setting atom values ...
  1 settings made for type
Setting atom values ...
  1 settings made for type
Setting atom values ...
  1 settings made for type
Setting atom values ...
  1 settings made for type
Setting atom values ...
  1 settings made for type
Setting atom values ...
  1 settings made for type
Setting atom values ...
  1 settings made for type
Setting atom values ...
  1 settings made for type
Setting atom values ...
  1 settings made for type
Setting atom values ...
  1 settings made for type
Setting atom values ...
  1 settings made for type
Setting atom values ...
  1 settings made for type
Setting atom values ...
  1 settings made for type
Setting atom values ...
  1 settings made for type
Setting atom values ...
  1 settings made for type
Setting atom values ...
  1 settings made for type
Setting atom values ...
  1 settings made for type
Setting atom values ...
  1 settings made for type
Setting atom values ...
  1 settings made for type
Setting atom values ...
  1 settings made for type
Setting atom values ...
  1 settings made for type
Setting atom values ...
  1 settings made for type
Setting atom values ...
  1 settings made for type
Setting atom values ...
  1 settings made for type
Setting atom values ...
  1 settings made for type
Setting atom values ...
  1 settings made for type
Setting atom values ...
  1 settings made for type
Setting atom values ...
  1 settings made for type
Setting atom values ...
  1 settings made for type
Setting atom values ...
  1 settings made for type
Setting atom values ...
  1 settings made for type
Setting atom values ...
  1 settings made for type
Setting atom values ...
  1 settings made for type
Setting atom values ...
  1 settings made for type
Setting atom values ...
  1 settings made for type
Setting atom values ...
  1 settings made for type
Setting atom values ...
  1 settings made for type
Setting atom values ...
  1 settings made for type
Setting atom values ...
  1 settings made for type
Setting atom values ...
  1 settings made for type
Setting atom values ...
  1 settings made for type
run 0
WARNING: No fixes with time integration, atoms won't move (src/src/verlet.cpp:60)
Per MPI rank memory allocation (min/avg/max) = 3.274 | 3.274 | 3.274 Mbytes
    PotEng          Pxx           E_mol          E_coul    
-424.44054      0.63082908     0              0            
Loop time of 1.417e-06 on 1 procs for 0 steps with 108 atoms

70.6% CPU use with 1 MPI tasks x no OpenMP threads

MPI task timing breakdown:
Section |  min time  |  avg time  |  max time  |%varavg| %total
---------------------------------------------------------------
Pair    | 0          | 0          | 0          |   0.0 |  0.00
Neigh   | 0          | 0          | 0          |   0.0 |  0.00
Comm    | 0          | 0          | 0          |   0.0 |  0.00
Output  | 0          | 0          | 0          |   0.0 |  0.00
Modify  | 0          | 0          | 0          |   0.0 |  0.00
Other   |            | 1.417e-06  |            |       |100.00

Nlocal:            108 ave         108 max         108 min
Histogram: 1 0 0 0 0 0 0 0 0 0
Nghost:           1580 ave        1580 max        1580 min
Histogram: 1 0 0 0 0 0 0 0 0 0
Neighs:           7560 ave        7560 max        7560 min
Histogram: 1 0 0 0 0 0 0 0 0 0

Total # of neighbors = 7560
Ave neighs/atom = 70
Neighbor list builds = 0
Dangerous builds = 0
set atom * x 0.0 y 0.0 z 0.0
Setting atom values ...
  108 settings made for x
  108 settings made for y
  108 settings made for z
change_box all     x final 0 11.995355555216173 y final 0 12.240158729812421 z final 0 12.240158729812421      xy final 0.0 xz final 0.0 yz final 0.0 units box
Changing box ...
  triclinic box = (0 0 0) to (11.995356 12.240159 12.240159) with tilt (0 0 0)
  triclinic box = (0 0 0) to (11.995356 12.240159 12.240159) with tilt (0 0 0)
  triclinic box = (0 0 0) to (11.995356 12.240159 12.240159) with tilt (0 0 0)
  triclinic box = (0 0 0) to (11.995356 12.240159 12.240159) with tilt (0 0 0)
  triclinic box = (0 0 0) to (11.995356 12.240159 12.240159) with tilt (0 0 0)
  triclinic box = (0 0 0) to (11.995356 12.240159 12.240159) with tilt (0 0 0)
echo none
run 0
WARNING: No fixes with time integration, atoms won't move (src/src/verlet.cpp:60)
Per MPI rank memory allocation (min/avg/max) = 3.274 | 3.274 | 3.274 Mbytes
    PotEng          Pxx           E_mol          E_coul    
-423.99018      40372.074      0              0            
Loop time of 1.084e-06 on 1 procs for 0 steps with 108 atoms

0.0% CPU use with 1 MPI tasks x no OpenMP threads

MPI task timing breakdown:
Section |  min time  |  avg time  |  max time  |%varavg| %total
---------------------------------------------------------------
Pair    | 0          | 0          | 0          |   0.0 |  0.00
Neigh   | 0          | 0          | 0          |   0.0 |  0.00
Comm    | 0          | 0          | 0          |   0.0 |  0.00
Output  | 0          | 0          | 0          |   0.0 |  0.00
Modify  | 0          | 0          | 0          |   0.0 |  0.00
Other   |            | 1.084e-06  |            |       |100.00

Nlocal:            108 ave         108 max         108 min
Histogram: 1 0 0 0 0 0 0 0 0 0
Nghost:           1580 ave        1580 max        1580 min
Histogram: 1 0 0 0 0 0 0 0 0 0
Neighs:           7560 ave        7560 max        7560 min
Histogram: 1 0 0 0 0 0 0 0 0 0

Total # of neighbors = 7560
Ave neighs/atom = 70
Neighbor list builds = 0
Dangerous builds = 0
set atom * x 0.0 y 0.0 z 0.0
Setting atom values ...
  108 settings made for x
  108 settings made for y
  108 settings made for z
change_box all     x final 0 12.117757142514296 y final 0 12.240158729812421 z final 0 12.240158729812421      xy final 0.0 xz final 0.0 yz final 0.0 units box
Changing box ...
  triclinic box = (0 0 0) to (12.117757 12.240159 12.240159) with tilt (0 0 0)
  triclinic box = (0 0 0) to (12.117757 12.240159 12.240159) with tilt (0 0 0)
  triclinic box = (0 0 0) to (12.117757 12.240159 12.240159) with tilt (0 0 0)
  triclinic box = (0 0 0) to (12.117757 12.240159 12.240159) with tilt (0 0 0)
  triclinic box = (0 0 0) to (12.117757 12.240159 12.240159) with tilt (0 0 0)
  triclinic box = (0 0 0) to (12.117757 12.240159 12.240159) with tilt (0 0 0)
echo none
run 0
WARNING: No fixes with time integration, atoms won't move (src/src/verlet.cpp:60)
Per MPI rank memory allocation (min/avg/max) = 3.274 | 3.274 | 3.274 Mbytes
    PotEng          Pxx           E_mol          E_coul    
-424.33091      19416.661      0              0            
Loop time of 1.042e-06 on 1 procs for 0 steps with 108 atoms

96.0% CPU use with 1 MPI tasks x no OpenMP threads

MPI task timing breakdown:
Section |  min time  |  avg time  |  max time  |%varavg| %total
---------------------------------------------------------------
Pair    | 0          | 0          | 0          |   0.0 |  0.00
Neigh   | 0          | 0          | 0          |   0.0 |  0.00
Comm    | 0          | 0          | 0          |   0.0 |  0.00
Output  | 0          | 0          | 0          |   0.0 |  0.00
Modify  | 0          | 0          | 0          |   0.0 |  0.00
Other   |            | 1.042e-06  |            |       |100.00

Nlocal:            108 ave         108 max         108 min
Histogram: 1 0 0 0 0 0 0 0 0 0
Nghost:           1580 ave        1580 max        1580 min
Histogram: 1 0 0 0 0 0 0 0 0 0
Neighs:           7560 ave        7560 max        7560 min
Histogram: 1 0 0 0 0 0 0 0 0 0

Total # of neighbors = 7560
Ave neighs/atom = 70
Neighbor list builds = 0
Dangerous builds = 0
set atom * x 0.0 y 0.0 z 0.0
Setting atom values ...
  108 settings made for x
  108 settings made for y
  108 settings made for z
change_box all     x final 0 12.240158729812421 y final 0 12.240158729812421 z final 0 12.240158729812421      xy final 0.0 xz final 0.0 yz final 0.0 units box
Changing box ...
  triclinic box = (0 0 0) to (12.240159 12.240159 12.240159) with tilt (0 0 0)
  triclinic box = (0 0 0) to (12.240159 12.240159 12.240159) with tilt (0 0 0)
  triclinic box = (0 0 0) to (12.240159 12.240159 12.240159) with tilt (0 0 0)
  triclinic box = (0 0 0) to (12.240159 12.240159 12.240159) with tilt (0 0 0)
  triclinic box = (0 0 0) to (12.240159 12.240159 12.240159) with tilt (0 0 0)
  triclinic box = (0 0 0) to (12.240159 12.240159 12.240159) with tilt (0 0 0)
echo none
run 0
WARNING: No fixes with time integration, atoms won't move (src/src/verlet.cpp:60)
Per MPI rank memory allocation (min/avg/max) = 3.274 | 3.274 | 3.274 Mbytes
    PotEng          Pxx           E_mol          E_coul    
-424.44054      0.63082908     0              0            
Loop time of 9.58e-07 on 1 procs for 0 steps with 108 atoms

0.0% CPU use with 1 MPI tasks x no OpenMP threads

MPI task timing breakdown:
Section |  min time  |  avg time  |  max time  |%varavg| %total
---------------------------------------------------------------
Pair    | 0          | 0          | 0          |   0.0 |  0.00
Neigh   | 0          | 0          | 0          |   0.0 |  0.00
Comm    | 0          | 0          | 0          |   0.0 |  0.00
Output  | 0          | 0          | 0          |   0.0 |  0.00
Modify  | 0          | 0          | 0          |   0.0 |  0.00
Other   |            | 9.58e-07   |            |       |100.00

Nlocal:            108 ave         108 max         108 min
Histogram: 1 0 0 0 0 0 0 0 0 0
Nghost:           1580 ave        1580 max        1580 min
Histogram: 1 0 0 0 0 0 0 0 0 0
Neighs:           7560 ave        7560 max        7560 min
Histogram: 1 0 0 0 0 0 0 0 0 0

Total # of neighbors = 7560
Ave neighs/atom = 70
Neighbor list builds = 0
Dangerous builds = 0
set atom * x 0.0 y 0.0 z 0.0
Setting atom values ...
  108 settings made for x
  108 settings made for y
  108 settings made for z
change_box all     x final 0 12.362560317110546 y final 0 12.240158729812421 z final 0 12.240158729812421      xy final 0.0 xz final 0.0 yz final 0.0 units box
Changing box ...
  triclinic box = (0 0 0) to (12.36256 12.240159 12.240159) with tilt (0 0 0)
  triclinic box = (0 0 0) to (12.36256 12.240159 12.240159) with tilt (0 0 0)
  triclinic box = (0 0 0) to (12.36256 12.240159 12.240159) with tilt (0 0 0)
  triclinic box = (0 0 0) to (12.36256 12.240159 12.240159) with tilt (0 0 0)
  triclinic box = (0 0 0) to (12.36256 12.240159 12.240159) with tilt (0 0 0)
  triclinic box = (0 0 0) to (12.36256 12.240159 12.240159) with tilt (0 0 0)
echo none
run 0
WARNING: No fixes with time integration, atoms won't move (src/src/verlet.cpp:60)
Per MPI rank memory allocation (min/avg/max) = 3.274 | 3.274 | 3.274 Mbytes
    PotEng          Pxx           E_mol          E_coul    
-424.33668     -17860.727      0              0            
Loop time of 7.09e-07 on 1 procs for 0 steps with 108 atoms

282.1% CPU use with 1 MPI tasks x no OpenMP threads

MPI task timing breakdown:
Section |  min time  |  avg time  |  max time  |%varavg| %total
---------------------------------------------------------------
Pair    | 0          | 0          | 0          |   0.0 |  0.00
Neigh   | 0          | 0          | 0          |   0.0 |  0.00
Comm    | 0          | 0          | 0          |   0.0 |  0.00
Output  | 0          | 0          | 0          |   0.0 |  0.00
Modify  | 0          | 0          | 0          |   0.0 |  0.00
Other   |            | 7.09e-07   |            |       |100.00

Nlocal:            108 ave         108 max         108 min
Histogram: 1 0 0 0 0 0 0 0 0 0
Nghost:           1580 ave        1580 max        1580 min
Histogram: 1 0 0 0 0 0 0 0 0 0
Neighs:           7560 ave        7560 max        7560 min
Histogram: 1 0 0 0 0 0 0 0 0 0

Total # of neighbors = 7560
Ave neighs/atom = 70
Neighbor list builds = 0
Dangerous builds = 0
set atom * x 0.0 y 0.0 z 0.0
Setting atom values ...
  108 settings made for x
  108 settings made for y
  108 settings made for z
change_box all     x final 0 12.484961904408669 y final 0 12.240158729812421 z final 0 12.240158729812421      xy final 0.0 xz final 0.0 yz final 0.0 units box
Changing box ...
  triclinic box = (0 0 0) to (12.484962 12.240159 12.240159) with tilt (0 0 0)
  triclinic box = (0 0 0) to (12.484962 12.240159 12.240159) with tilt (0 0 0)
  triclinic box = (0 0 0) to (12.484962 12.240159 12.240159) with tilt (0 0 0)
  triclinic box = (0 0 0) to (12.484962 12.240159 12.240159) with tilt (0 0 0)
  triclinic box = (0 0 0) to (12.484962 12.240159 12.240159) with tilt (0 0 0)
  triclinic box = (0 0 0) to (12.484962 12.240159 12.240159) with tilt (0 0 0)
echo none
run 0
WARNING: No fixes with time integration, atoms won't move (src/src/verlet.cpp:60)
Per MPI rank memory allocation (min/avg/max) = 3.274 | 3.274 | 3.274 Mbytes
    PotEng          Pxx           E_mol          E_coul    
-424.03716     -34236.214      0              0            
Loop time of 7.09e-07 on 1 procs for 0 steps with 108 atoms

141.0% CPU use with 1 MPI tasks x no OpenMP threads

MPI task timing breakdown:
Section |  min time  |  avg time  |  max time  |%varavg| %total
---------------------------------------------------------------
Pair    | 0          | 0          | 0          |   0.0 |  0.00
Neigh   | 0          | 0          | 0          |   0.0 |  0.00
Comm    | 0          | 0          | 0          |   0.0 |  0.00
Output  | 0          | 0          | 0          |   0.0 |  0.00
Modify  | 0          | 0          | 0          |   0.0 |  0.00
Other   |            | 7.09e-07   |            |       |100.00

Nlocal:            108 ave         108 max         108 min
Histogram: 1 0 0 0 0 0 0 0 0 0
Nghost:           1580 ave        1580 max        1580 min
Histogram: 1 0 0 0 0 0 0 0 0 0
Neighs:           7560 ave        7560 max        7560 min
Histogram: 1 0 0 0 0 0 0 0 0 0

Total # of neighbors = 7560
Ave neighs/atom = 70
Neighbor list builds = 0
Dangerous builds = 0
set atom * x 0.0 y 0.0 z 0.0
Setting atom values ...
  108 settings made for x
  108 settings made for y
  108 settings made for z
change_box all     x final 0 12.240158729812421 y final 0 12.2401832101054 z final 0 12.240134249568403      xy final 0.0 xz final 0.0 yz final 0.024480268499136804 units box
Changing box ...
  triclinic box = (0 0 0) to (12.240159 12.240159 12.240159) with tilt (0 0 0)
  triclinic box = (0 0 0) to (12.240159 12.240183 12.240159) with tilt (0 0 0)
  triclinic box = (0 0 0) to (12.240159 12.240183 12.240134) with tilt (0 0 0)
  triclinic box = (0 0 0) to (12.240159 12.240183 12.240134) with tilt (0 0 0)
  triclinic box = (0 0 0) to (12.240159 12.240183 12.240134) with tilt (0 0 0)
  triclinic box = (0 0 0) to (12.240159 12.240183 12.240134) with tilt (0 0 0.024480268)
echo none
run 0
WARNING: No fixes with time integration, atoms won't move (src/src/verlet.cpp:60)
Per MPI rank memory allocation (min/avg/max) = 3.274 | 3.274 | 3.274 Mbytes
    PotEng          Pxx           E_mol          E_coul    
-424.43948      2.2344166      0              0            
Loop time of 8.75e-07 on 1 procs for 0 steps with 108 atoms

228.6% CPU use with 1 MPI tasks x no OpenMP threads

MPI task timing breakdown:
Section |  min time  |  avg time  |  max time  |%varavg| %total
---------------------------------------------------------------
Pair    | 0          | 0          | 0          |   0.0 |  0.00
Neigh   | 0          | 0          | 0          |   0.0 |  0.00
Comm    | 0          | 0          | 0          |   0.0 |  0.00
Output  | 0          | 0          | 0          |   0.0 |  0.00
Modify  | 0          | 0          | 0          |   0.0 |  0.00
Other   |            | 8.75e-07   |            |       |100.00

Nlocal:            108 ave         108 max         108 min
Histogram: 1 0 0 0 0 0 0 0 0 0
Nghost:           1580 ave        1580 max        1580 min
Histogram: 1 0 0 0 0 0 0 0 0 0
Neighs:           7560 ave        7560 max        7560 min
Histogram: 1 0 0 0 0 0 0 0 0 0

Total # of neighbors = 7560
Ave neighs/atom = 70
Neighbor list builds = 0
Dangerous builds = 0
set atom * x 0.0 y 0.0 z 0.0
Setting atom values ...
  108 settings made for x
  108 settings made for y
  108 settings made for z
change_box all     x final 0 12.240158729812421 y final 0 12.240417300434466 z final 0 12.239900164652507      xy final 0.0 xz final 0.0 yz final 0.07955935107024131 units box
Changing box ...
  triclinic box = (0 0 0) to (12.240159 12.240183 12.240134) with tilt (0 0 0.024480268)
  triclinic box = (0 0 0) to (12.240159 12.240417 12.240134) with tilt (0 0 0.024480268)
  triclinic box = (0 0 0) to (12.240159 12.240417 12.2399) with tilt (0 0 0.024480268)
  triclinic box = (0 0 0) to (12.240159 12.240417 12.2399) with tilt (0 0 0.024480268)
  triclinic box = (0 0 0) to (12.240159 12.240417 12.2399) with tilt (0 0 0.024480268)
  triclinic box = (0 0 0) to (12.240159 12.240417 12.2399) with tilt (0 0 0.079559351)
echo none
run 0
WARNING: No fixes with time integration, atoms won't move (src/src/verlet.cpp:60)
[...]
  triclinic box = (0 0 0) to (11.386068 13.945028 35.345648) with tilt (-11.386068 0 0)
echo none
run 0
Per MPI rank memory allocation (min/avg/max) = 3.392 | 3.392 | 3.392 Mbytes
    PotEng          Pxx           E_mol          E_coul    
-607.80414     -1596.9974      0              0            
Loop time of 1.209e-06 on 1 procs for 0 steps with 160 atoms

413.6% CPU use with 1 MPI tasks x no OpenMP threads

MPI task timing breakdown:
Section |  min time  |  avg time  |  max time  |%varavg| %total
---------------------------------------------------------------
Pair    | 0          | 0          | 0          |   0.0 |  0.00
Neigh   | 0          | 0          | 0          |   0.0 |  0.00
Comm    | 0          | 0          | 0          |   0.0 |  0.00
Output  | 0          | 0          | 0          |   0.0 |  0.00
Modify  | 0          | 0          | 0          |   0.0 |  0.00
Other   |            | 1.209e-06  |            |       |100.00

Nlocal:            160 ave         160 max         160 min
Histogram: 1 0 0 0 0 0 0 0 0 0
Nghost:            848 ave         848 max         848 min
Histogram: 1 0 0 0 0 0 0 0 0 0
Neighs:           9104 ave        9104 max        9104 min
Histogram: 1 0 0 0 0 0 0 0 0 0

Total # of neighbors = 9104
Ave neighs/atom = 56.9
Neighbor list builds = 0
Dangerous builds = 0
set atom * x 0.0 y 0.0 z 0.0
Setting atom values ...
  160 settings made for x
  160 settings made for y
  160 settings made for z
change_box all     x final 0 11.387790533549518 y final 0 13.947138052446547 z final 0 35.35099596630398      xy final -11.38779053354952 xz final 0.0 yz final 0.0 units box
Changing box ...
  triclinic box = (0 0 0) to (11.387791 13.945028 35.345648) with tilt (-11.386068 0 0)
  triclinic box = (0 0 0) to (11.387791 13.947138 35.345648) with tilt (-11.386068 0 0)
  triclinic box = (0 0 0) to (11.387791 13.947138 35.350996) with tilt (-11.386068 0 0)
  triclinic box = (0 0 0) to (11.387791 13.947138 35.350996) with tilt (-11.387791 0 0)
  triclinic box = (0 0 0) to (11.387791 13.947138 35.350996) with tilt (-11.387791 0 0)
  triclinic box = (0 0 0) to (11.387791 13.947138 35.350996) with tilt (-11.387791 0 0)
echo none
run 0
Per MPI rank memory allocation (min/avg/max) = 3.392 | 3.392 | 3.392 Mbytes
    PotEng          Pxx           E_mol          E_coul    
-607.80528     -1721.7152      0              0            
Loop time of 1e-06 on 1 procs for 0 steps with 160 atoms

100.0% CPU use with 1 MPI tasks x no OpenMP threads

MPI task timing breakdown:
Section |  min time  |  avg time  |  max time  |%varavg| %total
---------------------------------------------------------------
Pair    | 0          | 0          | 0          |   0.0 |  0.00
Neigh   | 0          | 0          | 0          |   0.0 |  0.00
Comm    | 0          | 0          | 0          |   0.0 |  0.00
Output  | 0          | 0          | 0          |   0.0 |  0.00
Modify  | 0          | 0          | 0          |   0.0 |  0.00
Other   |            | 1e-06      |            |       |100.00

Nlocal:            160 ave         160 max         160 min
Histogram: 1 0 0 0 0 0 0 0 0 0
Nghost:            848 ave         848 max         848 min
Histogram: 1 0 0 0 0 0 0 0 0 0
Neighs:           9104 ave        9104 max        9104 min
Histogram: 1 0 0 0 0 0 0 0 0 0

Total # of neighbors = 9104
Ave neighs/atom = 56.9
Neighbor list builds = 0
Dangerous builds = 0
set atom * x 0.0 y 0.0 z 0.0
Setting atom values ...
  160 settings made for x
  160 settings made for y
  160 settings made for z
change_box all     x final 0 11.387790533549518 y final 0 13.947138052446547 z final 0 35.35099596630398      xy final -11.38779053354952 xz final 0.0 yz final 0.0 units box
Changing box ...
  triclinic box = (0 0 0) to (11.387791 13.947138 35.350996) with tilt (-11.387791 0 0)
  triclinic box = (0 0 0) to (11.387791 13.947138 35.350996) with tilt (-11.387791 0 0)
  triclinic box = (0 0 0) to (11.387791 13.947138 35.350996) with tilt (-11.387791 0 0)
  triclinic box = (0 0 0) to (11.387791 13.947138 35.350996) with tilt (-11.387791 0 0)
  triclinic box = (0 0 0) to (11.387791 13.947138 35.350996) with tilt (-11.387791 0 0)
  triclinic box = (0 0 0) to (11.387791 13.947138 35.350996) with tilt (-11.387791 0 0)
echo none
run 0
Per MPI rank memory allocation (min/avg/max) = 3.392 | 3.392 | 3.392 Mbytes
    PotEng          Pxx           E_mol          E_coul    
-607.80528     -1721.7152      0              0            
Loop time of 1e-06 on 1 procs for 0 steps with 160 atoms

200.0% CPU use with 1 MPI tasks x no OpenMP threads

MPI task timing breakdown:
Section |  min time  |  avg time  |  max time  |%varavg| %total
---------------------------------------------------------------
Pair    | 0          | 0          | 0          |   0.0 |  0.00
Neigh   | 0          | 0          | 0          |   0.0 |  0.00
Comm    | 0          | 0          | 0          |   0.0 |  0.00
Output  | 0          | 0          | 0          |   0.0 |  0.00
Modify  | 0          | 0          | 0          |   0.0 |  0.00
Other   |            | 1e-06      |            |       |100.00

Nlocal:            160 ave         160 max         160 min
Histogram: 1 0 0 0 0 0 0 0 0 0
Nghost:            848 ave         848 max         848 min
Histogram: 1 0 0 0 0 0 0 0 0 0
Neighs:           9104 ave        9104 max        9104 min
Histogram: 1 0 0 0 0 0 0 0 0 0

Total # of neighbors = 9104
Ave neighs/atom = 56.9
Neighbor list builds = 0
Dangerous builds = 0
set atom * x 0.0 y 0.0 z 0.0
Setting atom values ...
  160 settings made for x
  160 settings made for y
  160 settings made for z
change_box all     x final 0 11.38849288957676 y final 0 13.947998259388804 z final 0 35.35317628258331      xy final -11.388492889576762 xz final 0.0 yz final 0.0 units box
Changing box ...
  triclinic box = (0 0 0) to (11.388493 13.947138 35.350996) with tilt (-11.387791 0 0)
  triclinic box = (0 0 0) to (11.388493 13.947998 35.350996) with tilt (-11.387791 0 0)
  triclinic box = (0 0 0) to (11.388493 13.947998 35.353176) with tilt (-11.387791 0 0)
  triclinic box = (0 0 0) to (11.388493 13.947998 35.353176) with tilt (-11.388493 0 0)
  triclinic box = (0 0 0) to (11.388493 13.947998 35.353176) with tilt (-11.388493 0 0)
  triclinic box = (0 0 0) to (11.388493 13.947998 35.353176) with tilt (-11.388493 0 0)
echo none
run 0
Per MPI rank memory allocation (min/avg/max) = 3.392 | 3.392 | 3.392 Mbytes
    PotEng          Pxx           E_mol          E_coul    
-607.80587     -1797.1382      0              0            
Loop time of 1.042e-06 on 1 procs for 0 steps with 160 atoms

383.9% CPU use with 1 MPI tasks x no OpenMP threads

MPI task timing breakdown:
Section |  min time  |  avg time  |  max time  |%varavg| %total
---------------------------------------------------------------
Pair    | 0          | 0          | 0          |   0.0 |  0.00
Neigh   | 0          | 0          | 0          |   0.0 |  0.00
Comm    | 0          | 0          | 0          |   0.0 |  0.00
Output  | 0          | 0          | 0          |   0.0 |  0.00
Modify  | 0          | 0          | 0          |   0.0 |  0.00
Other   |            | 1.042e-06  |            |       |100.00

Nlocal:            160 ave         160 max         160 min
Histogram: 1 0 0 0 0 0 0 0 0 0
Nghost:            848 ave         848 max         848 min
Histogram: 1 0 0 0 0 0 0 0 0 0
Neighs:           9104 ave        9104 max        9104 min
Histogram: 1 0 0 0 0 0 0 0 0 0

Total # of neighbors = 9104
Ave neighs/atom = 56.9
Neighbor list builds = 0
Dangerous builds = 0
set atom * x 0.0 y 0.0 z 0.0
Setting atom values ...
  160 settings made for x
  160 settings made for y
  160 settings made for z
change_box all     x final 0 11.388492889576758 y final 0 13.947998259388804 z final 0 35.35317628258331      xy final -11.38849288957676 xz final 0.0 yz final 0.0 units box
Changing box ...
  triclinic box = (0 0 0) to (11.388493 13.947998 35.353176) with tilt (-11.388493 0 0)
  triclinic box = (0 0 0) to (11.388493 13.947998 35.353176) with tilt (-11.388493 0 0)
  triclinic box = (0 0 0) to (11.388493 13.947998 35.353176) with tilt (-11.388493 0 0)
  triclinic box = (0 0 0) to (11.388493 13.947998 35.353176) with tilt (-11.388493 0 0)
  triclinic box = (0 0 0) to (11.388493 13.947998 35.353176) with tilt (-11.388493 0 0)
  triclinic box = (0 0 0) to (11.388493 13.947998 35.353176) with tilt (-11.388493 0 0)
echo none
run 0
Per MPI rank memory allocation (min/avg/max) = 3.392 | 3.392 | 3.392 Mbytes
    PotEng          Pxx           E_mol          E_coul    
-607.80587     -1797.1382      0              0            
Loop time of 5.84e-07 on 1 procs for 0 steps with 160 atoms

0.0% CPU use with 1 MPI tasks x no OpenMP threads

MPI task timing breakdown:
Section |  min time  |  avg time  |  max time  |%varavg| %total
---------------------------------------------------------------
Pair    | 0          | 0          | 0          |   0.0 |  0.00
Neigh   | 0          | 0          | 0          |   0.0 |  0.00
Comm    | 0          | 0          | 0          |   0.0 |  0.00
Output  | 0          | 0          | 0          |   0.0 |  0.00
Modify  | 0          | 0          | 0          |   0.0 |  0.00
Other   |            | 5.84e-07   |            |       |100.00

Nlocal:            160 ave         160 max         160 min
Histogram: 1 0 0 0 0 0 0 0 0 0
Nghost:            848 ave         848 max         848 min
Histogram: 1 0 0 0 0 0 0 0 0 0
Neighs:           9104 ave        9104 max        9104 min
Histogram: 1 0 0 0 0 0 0 0 0 0

Total # of neighbors = 9104
Ave neighs/atom = 56.9
Neighbor list builds = 0
Dangerous builds = 0
set atom * x 0.0 y 0.0 z 0.0
Setting atom values ...
  160 settings made for x
  160 settings made for y
  160 settings made for z
change_box all     x final 0 11.38841032546472 y final 0 13.947897139416025 z final 0 35.3529199796962      xy final -11.388410325464722 xz final 0.0 yz final 0.0 units box
Changing box ...
  triclinic box = (0 0 0) to (11.38841 13.947998 35.353176) with tilt (-11.388493 0 0)
  triclinic box = (0 0 0) to (11.38841 13.947897 35.353176) with tilt (-11.388493 0 0)
  triclinic box = (0 0 0) to (11.38841 13.947897 35.35292) with tilt (-11.388493 0 0)
  triclinic box = (0 0 0) to (11.38841 13.947897 35.35292) with tilt (-11.38841 0 0)
  triclinic box = (0 0 0) to (11.38841 13.947897 35.35292) with tilt (-11.38841 0 0)
  triclinic box = (0 0 0) to (11.38841 13.947897 35.35292) with tilt (-11.38841 0 0)
echo none
run 0
Per MPI rank memory allocation (min/avg/max) = 3.392 | 3.392 | 3.392 Mbytes
    PotEng          Pxx           E_mol          E_coul    
-607.80606     -1814.4162      0              0            
Loop time of 1.166e-06 on 1 procs for 0 steps with 160 atoms

85.8% CPU use with 1 MPI tasks x no OpenMP threads

MPI task timing breakdown:
Section |  min time  |  avg time  |  max time  |%varavg| %total
---------------------------------------------------------------
Pair    | 0          | 0          | 0          |   0.0 |  0.00
Neigh   | 0          | 0          | 0          |   0.0 |  0.00
Comm    | 0          | 0          | 0          |   0.0 |  0.00
Output  | 0          | 0          | 0          |   0.0 |  0.00
Modify  | 0          | 0          | 0          |   0.0 |  0.00
Other   |            | 1.166e-06  |            |       |100.00

Nlocal:            160 ave         160 max         160 min
Histogram: 1 0 0 0 0 0 0 0 0 0
Nghost:            848 ave         848 max         848 min
Histogram: 1 0 0 0 0 0 0 0 0 0
Neighs:           9104 ave        9104 max        9104 min
Histogram: 1 0 0 0 0 0 0 0 0 0

Total # of neighbors = 9104
Ave neighs/atom = 56.9
Neighbor list builds = 0
Dangerous builds = 0
set atom * x 0.0 y 0.0 z 0.0
Setting atom values ...
  160 settings made for x
  160 settings made for y
  160 settings made for z
change_box all     x final 0 11.38841032546472 y final 0 13.947897139416025 z final 0 35.3529199796962      xy final -11.388410325464722 xz final 0.0 yz final 0.0 units box
Changing box ...
  triclinic box = (0 0 0) to (11.38841 13.947897 35.35292) with tilt (-11.38841 0 0)
  triclinic box = (0 0 0) to (11.38841 13.947897 35.35292) with tilt (-11.38841 0 0)
  triclinic box = (0 0 0) to (11.38841 13.947897 35.35292) with tilt (-11.38841 0 0)
  triclinic box = (0 0 0) to (11.38841 13.947897 35.35292) with tilt (-11.38841 0 0)
  triclinic box = (0 0 0) to (11.38841 13.947897 35.35292) with tilt (-11.38841 0 0)
  triclinic box = (0 0 0) to (11.38841 13.947897 35.35292) with tilt (-11.38841 0 0)
echo none
run 0
Per MPI rank memory allocation (min/avg/max) = 3.392 | 3.392 | 3.392 Mbytes
    PotEng          Pxx           E_mol          E_coul    
-607.80606     -1814.4162      0              0            
Loop time of 1.208e-06 on 1 procs for 0 steps with 160 atoms

248.3% CPU use with 1 MPI tasks x no OpenMP threads

MPI task timing breakdown:
Section |  min time  |  avg time  |  max time  |%varavg| %total
---------------------------------------------------------------
Pair    | 0          | 0          | 0          |   0.0 |  0.00
Neigh   | 0          | 0          | 0          |   0.0 |  0.00
Comm    | 0          | 0          | 0          |   0.0 |  0.00
Output  | 0          | 0          | 0          |   0.0 |  0.00
Modify  | 0          | 0          | 0          |   0.0 |  0.00
Other   |            | 1.208e-06  |            |       |100.00

Nlocal:            160 ave         160 max         160 min
Histogram: 1 0 0 0 0 0 0 0 0 0
Nghost:            848 ave         848 max         848 min
Histogram: 1 0 0 0 0 0 0 0 0 0
Neighs:           9104 ave        9104 max        9104 min
Histogram: 1 0 0 0 0 0 0 0 0 0

Total # of neighbors = 9104
Ave neighs/atom = 56.9
Neighbor list builds = 0
Dangerous builds = 0
set atom * x 0.0 y 0.0 z 0.0
Setting atom values ...
  160 settings made for x
  160 settings made for y
  160 settings made for z
change_box all     x final 0 11.388197460202035 y final 0 13.947636433777257 z final 0 35.35225918434523      xy final -11.388197460202036 xz final 0.0 yz final 0.0 units box
Changing box ...
  triclinic box = (0 0 0) to (11.388197 13.947897 35.35292) with tilt (-11.38841 0 0)
  triclinic box = (0 0 0) to (11.388197 13.947636 35.35292) with tilt (-11.38841 0 0)
  triclinic box = (0 0 0) to (11.388197 13.947636 35.352259) with tilt (-11.38841 0 0)
  triclinic box = (0 0 0) to (11.388197 13.947636 35.352259) with tilt (-11.388197 0 0)
  triclinic box = (0 0 0) to (11.388197 13.947636 35.352259) with tilt (-11.388197 0 0)
  triclinic box = (0 0 0) to (11.388197 13.947636 35.352259) with tilt (-11.388197 0 0)
echo none
run 0
Per MPI rank memory allocation (min/avg/max) = 3.392 | 3.392 | 3.392 Mbytes
    PotEng          Pxx           E_mol          E_coul    
-607.80613     -1813.0794      0              0            
Loop time of 5.84e-07 on 1 procs for 0 steps with 160 atoms

171.2% CPU use with 1 MPI tasks x no OpenMP threads

MPI task timing breakdown:
Section |  min time  |  avg time  |  max time  |%varavg| %total
---------------------------------------------------------------
Pair    | 0          | 0          | 0          |   0.0 |  0.00
Neigh   | 0          | 0          | 0          |   0.0 |  0.00
Comm    | 0          | 0          | 0          |   0.0 |  0.00
Output  | 0          | 0          | 0          |   0.0 |  0.00
Modify  | 0          | 0          | 0          |   0.0 |  0.00
Other   |            | 5.84e-07   |            |       |100.00

Nlocal:            160 ave         160 max         160 min
Histogram: 1 0 0 0 0 0 0 0 0 0
Nghost:            848 ave         848 max         848 min
Histogram: 1 0 0 0 0 0 0 0 0 0
Neighs:           9104 ave        9104 max        9104 min
Histogram: 1 0 0 0 0 0 0 0 0 0

Total # of neighbors = 9104
Ave neighs/atom = 56.9
Neighbor list builds = 0
Dangerous builds = 0
set atom * x 0.0 y 0.0 z 0.0
Setting atom values ...
  160 settings made for x
  160 settings made for y
  160 settings made for z
change_box all     x final 0 11.388197460202035 y final 0 13.947636433777257 z final 0 35.35225918434523      xy final -11.388197460202036 xz final 0.0 yz final 0.0 units box
Changing box ...
  triclinic box = (0 0 0) to (11.388197 13.947636 35.352259) with tilt (-11.388197 0 0)
  triclinic box = (0 0 0) to (11.388197 13.947636 35.352259) with tilt (-11.388197 0 0)
  triclinic box = (0 0 0) to (11.388197 13.947636 35.352259) with tilt (-11.388197 0 0)
  triclinic box = (0 0 0) to (11.388197 13.947636 35.352259) with tilt (-11.388197 0 0)
  triclinic box = (0 0 0) to (11.388197 13.947636 35.352259) with tilt (-11.388197 0 0)
  triclinic box = (0 0 0) to (11.388197 13.947636 35.352259) with tilt (-11.388197 0 0)
echo none
run 0
Per MPI rank memory allocation (min/avg/max) = 3.392 | 3.392 | 3.392 Mbytes
    PotEng          Pxx           E_mol          E_coul    
-607.80613     -1813.0794      0              0            
Loop time of 9.17e-07 on 1 procs for 0 steps with 160 atoms

218.1% CPU use with 1 MPI tasks x no OpenMP threads

MPI task timing breakdown:
Section |  min time  |  avg time  |  max time  |%varavg| %total
---------------------------------------------------------------
Pair    | 0          | 0          | 0          |   0.0 |  0.00
Neigh   | 0          | 0          | 0          |   0.0 |  0.00
Comm    | 0          | 0          | 0          |   0.0 |  0.00
Output  | 0          | 0          | 0          |   0.0 |  0.00
Modify  | 0          | 0          | 0          |   0.0 |  0.00
Other   |            | 9.17e-07   |            |       |100.00

Nlocal:            160 ave         160 max         160 min
Histogram: 1 0 0 0 0 0 0 0 0 0
Nghost:            848 ave         848 max         848 min
Histogram: 1 0 0 0 0 0 0 0 0 0
Neighs:           9104 ave        9104 max        9104 min
Histogram: 1 0 0 0 0 0 0 0 0 0

Total # of neighbors = 9104
Ave neighs/atom = 56.9
Neighbor list builds = 0
Dangerous builds = 0
set atom * x 0.0 y 0.0 z 0.0
Setting atom values ...
  160 settings made for x
  160 settings made for y
  160 settings made for z
change_box all     x final 0 11.38811050798695 y final 0 13.947529939497779 z final 0 35.35198925951692      xy final -11.388110507986951 xz final 0.0 yz final 0.0 units box
Changing box ...
  triclinic box = (0 0 0) to (11.388111 13.947636 35.352259) with tilt (-11.388197 0 0)
  triclinic box = (0 0 0) to (11.388111 13.94753 35.352259) with tilt (-11.388197 0 0)
  triclinic box = (0 0 0) to (11.388111 13.94753 35.351989) with tilt (-11.388197 0 0)
  triclinic box = (0 0 0) to (11.388111 13.94753 35.351989) with tilt (-11.388111 0 0)
  triclinic box = (0 0 0) to (11.388111 13.94753 35.351989) with tilt (-11.388111 0 0)
  triclinic box = (0 0 0) to (11.388111 13.94753 35.351989) with tilt (-11.388111 0 0)
echo none
run 0
Per MPI rank memory allocation (min/avg/max) = 3.392 | 3.392 | 3.392 Mbytes
    PotEng          Pxx           E_mol          E_coul    
-607.80615     -1809.5174      0              0            
Loop time of 1.292e-06 on 1 procs for 0 steps with 160 atoms

154.8% CPU use with 1 MPI tasks x no OpenMP threads

MPI task timing breakdown:
Section |  min time  |  avg time  |  max time  |%varavg| %total
---------------------------------------------------------------
Pair    | 0          | 0          | 0          |   0.0 |  0.00
Neigh   | 0          | 0          | 0          |   0.0 |  0.00
Comm    | 0          | 0          | 0          |   0.0 |  0.00
Output  | 0          | 0          | 0          |   0.0 |  0.00
Modify  | 0          | 0          | 0          |   0.0 |  0.00
Other   |            | 1.292e-06  |            |       |100.00

Nlocal:            160 ave         160 max         160 min
Histogram: 1 0 0 0 0 0 0 0 0 0
Nghost:            848 ave         848 max         848 min
Histogram: 1 0 0 0 0 0 0 0 0 0
Neighs:           9104 ave        9104 max        9104 min
Histogram: 1 0 0 0 0 0 0 0 0 0

Total # of neighbors = 9104
Ave neighs/atom = 56.9
Neighbor list builds = 0
Dangerous builds = 0
Total wall time: 0:00:14
