LAMMPS (23 Jun 2022 - Update 4)
units metal
atom_style atomic
atom_modify map array sort 0 0
boundary p p p
box tilt large
region cell prism    0 2.931 0 2.5383204584921897 0 4.651     -1.4655 0.0 0.0     units box
create_box 1 cell
Created triclinic box = (0 0 0) to (2.931 2.5383205 4.651) with tilt (-1.4655 0 0)
  1 by 1 by 1 MPI processor grid
echo none
Created 2 atoms
  using lattice units in triclinic box = (0 0 0) to (2.931 2.5383205 4.651) with tilt (-1.4655 0 0)
  create_atoms CPU = 0.000 seconds
Setting atom values ...
  1 settings made for type
Setting atom values ...
  1 settings made for type
pair_style eam/alloy
pair_coeff * * potentials/Ti.eam.alloy Ti
Reading eam/alloy potential file potentials/Ti.eam.alloy with DATE: 2018-03-30
mass 1 47.866999987686483564175432547927
variable pxx equal pxx
variable pyy equal pyy
variable pzz equal pzz
variable pxy equal pxy
variable pxz equal pxz
variable pyz equal pyz
thermo_style custom pe pxx emol ecoul
variable fx atom fx
variable fy atom fy
variable fz atom fz
variable pe equal pe
neigh_modify delay 0 every 1 check yes
echo none
run 0
WARNING: No fixes with time integration, atoms won't move (src/src/verlet.cpp:60)
Neighbor list info ...
  update every 1 steps, delay 0 steps, check yes
  max neighbors/atom: 2000, page size: 100000
  master list distance cutoff = 8.5603372
  ghost atom cutoff = 8.5603372
  binsize = 4.2801686, bins = 2 1 2
  1 neighbor lists, perpetual/occasional/extra = 1 0 0
  (1) pair eam/alloy, perpetual
      attributes: half, newton on
      pair build: half/bin/newton/tri
      stencil: half/bin/3d/tri
      bin: standard
Per MPI rank memory allocation (min/avg/max) = 3.25 | 3.25 | 3.25 Mbytes
    PotEng          Pxx           E_mol          E_coul    
-9.721737       26916.679      0              0            
Loop time of 1.042e-06 on 1 procs for 0 steps with 2 atoms

96.0% CPU use with 1 MPI tasks x no OpenMP threads

MPI task timing breakdown:
Section |  min time  |  avg time  |  max time  |%varavg| %total
---------------------------------------------------------------
Pair    | 0          | 0          | 0          |   0.0 |  0.00
Neigh   | 0          | 0          | 0          |   0.0 |  0.00
Comm    | 0          | 0          | 0          |   0.0 |  0.00
Output  | 0          | 0          | 0          |   0.0 |  0.00
Modify  | 0          | 0          | 0          |   0.0 |  0.00
Other   |            | 1.042e-06  |            |       |100.00

Nlocal:              2 ave           2 max           2 min
Histogram: 1 0 0 0 0 0 0 0 0 0
Nghost:            574 ave         574 max         574 min
Histogram: 1 0 0 0 0 0 0 0 0 0
Neighs:            146 ave         146 max         146 min
Histogram: 1 0 0 0 0 0 0 0 0 0

Total # of neighbors = 146
Ave neighs/atom = 73
Neighbor list builds = 0
Dangerous builds = 0
set atom * x 0.0 y 0.0 z 0.0
Setting atom values ...
  2 settings made for x
  2 settings made for y
  2 settings made for z
change_box all     x final 0 3.1841214505083153 y final 0 2.7575300648751564 z final 0 5.052660820987436      xy final -1.5920607252541576 xz final 0.0 yz final 0.0 units box
Changing box ...
  triclinic box = (0 0 0) to (3.1841215 2.5383205 4.651) with tilt (-1.4655 0 0)
  triclinic box = (0 0 0) to (3.1841215 2.7575301 4.651) with tilt (-1.4655 0 0)
  triclinic box = (0 0 0) to (3.1841215 2.7575301 5.0526608) with tilt (-1.4655 0 0)
  triclinic box = (0 0 0) to (3.1841215 2.7575301 5.0526608) with tilt (-1.5920607 0 0)
  triclinic box = (0 0 0) to (3.1841215 2.7575301 5.0526608) with tilt (-1.5920607 0 0)
  triclinic box = (0 0 0) to (3.1841215 2.7575301 5.0526608) with tilt (-1.5920607 0 0)
echo none
run 0
WARNING: No fixes with time integration, atoms won't move (src/src/verlet.cpp:60)
Per MPI rank memory allocation (min/avg/max) = 3.25 | 3.25 | 3.25 Mbytes
    PotEng          Pxx           E_mol          E_coul    
-9.2492375     -165443.31      0              0            
Loop time of 1.125e-06 on 1 procs for 0 steps with 2 atoms

88.9% CPU use with 1 MPI tasks x no OpenMP threads

MPI task timing breakdown:
Section |  min time  |  avg time  |  max time  |%varavg| %total
---------------------------------------------------------------
Pair    | 0          | 0          | 0          |   0.0 |  0.00
Neigh   | 0          | 0          | 0          |   0.0 |  0.00
Comm    | 0          | 0          | 0          |   0.0 |  0.00
Output  | 0          | 0          | 0          |   0.0 |  0.00
Modify  | 0          | 0          | 0          |   0.0 |  0.00
Other   |            | 1.125e-06  |            |       |100.00

Nlocal:              2 ave           2 max           2 min
Histogram: 1 0 0 0 0 0 0 0 0 0
Nghost:            499 ave         499 max         499 min
Histogram: 1 0 0 0 0 0 0 0 0 0
Neighs:            134 ave         134 max         134 min
Histogram: 1 0 0 0 0 0 0 0 0 0

Total # of neighbors = 134
Ave neighs/atom = 67
Neighbor list builds = 0
Dangerous builds = 0
set atom * x 0.0 y 0.0 z 0.0
Setting atom values ...
  2 settings made for x
  2 settings made for y
  2 settings made for z
change_box all     x final 0 2.9666822624116205 y final 0 2.569222204205156 z final 0 4.7076216999237275      xy final -1.4833411312058102 xz final 0.0 yz final 0.0 units box
Changing box ...
WARNING: Triclinic box skew is large (src/src/domain.cpp:224)
  triclinic box = (0 0 0) to (2.9666823 2.7575301 5.0526608) with tilt (-1.5920607 0 0)
WARNING: Triclinic box skew is large (src/src/domain.cpp:224)
  triclinic box = (0 0 0) to (2.9666823 2.5692222 5.0526608) with tilt (-1.5920607 0 0)
WARNING: Triclinic box skew is large (src/src/domain.cpp:224)
  triclinic box = (0 0 0) to (2.9666823 2.5692222 4.7076217) with tilt (-1.5920607 0 0)
  triclinic box = (0 0 0) to (2.9666823 2.5692222 4.7076217) with tilt (-1.4833411 0 0)
  triclinic box = (0 0 0) to (2.9666823 2.5692222 4.7076217) with tilt (-1.4833411 0 0)
  triclinic box = (0 0 0) to (2.9666823 2.5692222 4.7076217) with tilt (-1.4833411 0 0)
echo none
run 0
WARNING: No fixes with time integration, atoms won't move (src/src/verlet.cpp:60)
Per MPI rank memory allocation (min/avg/max) = 3.25 | 3.25 | 3.25 Mbytes
    PotEng          Pxx           E_mol          E_coul    
-9.7355665     -10493.894      0              0            
Loop time of 7.09e-07 on 1 procs for 0 steps with 2 atoms

141.0% CPU use with 1 MPI tasks x no OpenMP threads

MPI task timing breakdown:
Section |  min time  |  avg time  |  max time  |%varavg| %total
---------------------------------------------------------------
Pair    | 0          | 0          | 0          |   0.0 |  0.00
Neigh   | 0          | 0          | 0          |   0.0 |  0.00
Comm    | 0          | 0          | 0          |   0.0 |  0.00
Output  | 0          | 0          | 0          |   0.0 |  0.00
Modify  | 0          | 0          | 0          |   0.0 |  0.00
Other   |            | 7.09e-07   |            |       |100.00

Nlocal:              2 ave           2 max           2 min
Histogram: 1 0 0 0 0 0 0 0 0 0
Nghost:            499 ave         499 max         499 min
Histogram: 1 0 0 0 0 0 0 0 0 0
Neighs:            146 ave         146 max         146 min
Histogram: 1 0 0 0 0 0 0 0 0 0

Total # of neighbors = 146
Ave neighs/atom = 73
Neighbor list builds = 0
Dangerous builds = 0
set atom * x 0.0 y 0.0 z 0.0
Setting atom values ...
  2 settings made for x
  2 settings made for y
  2 settings made for z
change_box all     x final 0 2.964923083153642 y final 0 2.567698710277936 z final 0 4.704830180739539      xy final -1.482461541576821 xz final 0.0 yz final 0.0 units box
Changing box ...
WARNING: Triclinic box skew is large (src/src/domain.cpp:224)
  triclinic box = (0 0 0) to (2.9649231 2.5692222 4.7076217) with tilt (-1.4833411 0 0)
WARNING: Triclinic box skew is large (src/src/domain.cpp:224)
  triclinic box = (0 0 0) to (2.9649231 2.5676987 4.7076217) with tilt (-1.4833411 0 0)
WARNING: Triclinic box skew is large (src/src/domain.cpp:224)
  triclinic box = (0 0 0) to (2.9649231 2.5676987 4.7048302) with tilt (-1.4833411 0 0)
  triclinic box = (0 0 0) to (2.9649231 2.5676987 4.7048302) with tilt (-1.4824615 0 0)
  triclinic box = (0 0 0) to (2.9649231 2.5676987 4.7048302) with tilt (-1.4824615 0 0)
  triclinic box = (0 0 0) to (2.9649231 2.5676987 4.7048302) with tilt (-1.4824615 0 0)
echo none
run 0
WARNING: No fixes with time integration, atoms won't move (src/src/verlet.cpp:60)
Per MPI rank memory allocation (min/avg/max) = 3.25 | 3.25 | 3.25 Mbytes
    PotEng          Pxx           E_mol          E_coul    
-9.7356054     -8765.6599      0              0            
Loop time of 1e-06 on 1 procs for 0 steps with 2 atoms

300.0% CPU use with 1 MPI tasks x no OpenMP threads

MPI task timing breakdown:
Section |  min time  |  avg time  |  max time  |%varavg| %total
---------------------------------------------------------------
Pair    | 0          | 0          | 0          |   0.0 |  0.00
Neigh   | 0          | 0          | 0          |   0.0 |  0.00
Comm    | 0          | 0          | 0          |   0.0 |  0.00
Output  | 0          | 0          | 0          |   0.0 |  0.00
Modify  | 0          | 0          | 0          |   0.0 |  0.00
Other   |            | 1e-06      |            |       |100.00

Nlocal:              2 ave           2 max           2 min
Histogram: 1 0 0 0 0 0 0 0 0 0
Nghost:            574 ave         574 max         574 min
Histogram: 1 0 0 0 0 0 0 0 0 0
Neighs:            146 ave         146 max         146 min
Histogram: 1 0 0 0 0 0 0 0 0 0

Total # of neighbors = 146
Ave neighs/atom = 73
Neighbor list builds = 0
Dangerous builds = 0
set atom * x 0.0 y 0.0 z 0.0
Setting atom values ...
  2 settings made for x
  2 settings made for y
  2 settings made for z
change_box all     x final 0 2.668430774838278 y final 0 2.3109288392501424 z final 0 4.2343471626655855      xy final -1.334215387419139 xz final 0.0 yz final 0.0 units box
Changing box ...
WARNING: Triclinic box skew is large (src/src/domain.cpp:224)
  triclinic box = (0 0 0) to (2.6684308 2.5676987 4.7048302) with tilt (-1.4824615 0 0)
WARNING: Triclinic box skew is large (src/src/domain.cpp:224)
  triclinic box = (0 0 0) to (2.6684308 2.3109288 4.7048302) with tilt (-1.4824615 0 0)
WARNING: Triclinic box skew is large (src/src/domain.cpp:224)
  triclinic box = (0 0 0) to (2.6684308 2.3109288 4.2343472) with tilt (-1.4824615 0 0)
  triclinic box = (0 0 0) to (2.6684308 2.3109288 4.2343472) with tilt (-1.3342154 0 0)
  triclinic box = (0 0 0) to (2.6684308 2.3109288 4.2343472) with tilt (-1.3342154 0 0)
  triclinic box = (0 0 0) to (2.6684308 2.3109288 4.2343472) with tilt (-1.3342154 0 0)
echo none
run 0
WARNING: No fixes with time integration, atoms won't move (src/src/verlet.cpp:60)
Per MPI rank memory allocation (min/avg/max) = 3.265 | 3.265 | 3.265 Mbytes
    PotEng          Pxx           E_mol          E_coul    
-8.2369805      630196.74      0              0            
Loop time of 1.083e-06 on 1 procs for 0 steps with 2 atoms

92.3% CPU use with 1 MPI tasks x no OpenMP threads

MPI task timing breakdown:
Section |  min time  |  avg time  |  max time  |%varavg| %total
---------------------------------------------------------------
Pair    | 0          | 0          | 0          |   0.0 |  0.00
Neigh   | 0          | 0          | 0          |   0.0 |  0.00
Comm    | 0          | 0          | 0          |   0.0 |  0.00
Output  | 0          | 0          | 0          |   0.0 |  0.00
Modify  | 0          | 0          | 0          |   0.0 |  0.00
Other   |            | 1.083e-06  |            |       |100.00

Nlocal:              2 ave           2 max           2 min
Histogram: 1 0 0 0 0 0 0 0 0 0
Nghost:            787 ave         787 max         787 min
Histogram: 1 0 0 0 0 0 0 0 0 0
Neighs:            208 ave         208 max         208 min
Histogram: 1 0 0 0 0 0 0 0 0 0

Total # of neighbors = 208
Ave neighs/atom = 104
Neighbor list builds = 0
Dangerous builds = 0
set atom * x 0.0 y 0.0 z 0.0
Setting atom values ...
  2 settings made for x
  2 settings made for y
  2 settings made for z
change_box all     x final 0 2.6980800056698144 y final 0 2.3366058263529217 z final 0 4.281395464472981      xy final -1.3490400028349072 xz final 0.0 yz final 0.0 units box
Changing box ...
  triclinic box = (0 0 0) to (2.69808 2.3109288 4.2343472) with tilt (-1.3342154 0 0)
  triclinic box = (0 0 0) to (2.69808 2.3366058 4.2343472) with tilt (-1.3342154 0 0)
  triclinic box = (0 0 0) to (2.69808 2.3366058 4.2813955) with tilt (-1.3342154 0 0)
  triclinic box = (0 0 0) to (2.69808 2.3366058 4.2813955) with tilt (-1.34904 0 0)
  triclinic box = (0 0 0) to (2.69808 2.3366058 4.2813955) with tilt (-1.34904 0 0)
  triclinic box = (0 0 0) to (2.69808 2.3366058 4.2813955) with tilt (-1.34904 0 0)
echo none
run 0
WARNING: No fixes with time integration, atoms won't move (src/src/verlet.cpp:60)
Per MPI rank memory allocation (min/avg/max) = 3.257 | 3.257 | 3.257 Mbytes
    PotEng          Pxx           E_mol          E_coul    
-8.5708708      519975.06      0              0            
Loop time of 1.042e-06 on 1 procs for 0 steps with 2 atoms

0.0% CPU use with 1 MPI tasks x no OpenMP threads

MPI task timing breakdown:
Section |  min time  |  avg time  |  max time  |%varavg| %total
---------------------------------------------------------------
Pair    | 0          | 0          | 0          |   0.0 |  0.00
Neigh   | 0          | 0          | 0          |   0.0 |  0.00
Comm    | 0          | 0          | 0          |   0.0 |  0.00
Output  | 0          | 0          | 0          |   0.0 |  0.00
Modify  | 0          | 0          | 0          |   0.0 |  0.00
Other   |            | 1.042e-06  |            |       |100.00

Nlocal:              2 ave           2 max           2 min
Histogram: 1 0 0 0 0 0 0 0 0 0
Nghost:            574 ave         574 max         574 min
Histogram: 1 0 0 0 0 0 0 0 0 0
Neighs:            206 ave         206 max         206 min
Histogram: 1 0 0 0 0 0 0 0 0 0

Total # of neighbors = 206
Ave neighs/atom = 103
Neighbor list builds = 0
Dangerous builds = 0
set atom * x 0.0 y 0.0 z 0.0
Setting atom values ...
  2 settings made for x
  2 settings made for y
  2 settings made for z
change_box all     x final 0 2.7277292365013506 y final 0 2.3622828134557015 z final 0 4.328443766280376      xy final -1.3638646182506753 xz final 0.0 yz final 0.0 units box
Changing box ...
  triclinic box = (0 0 0) to (2.7277292 2.3366058 4.2813955) with tilt (-1.34904 0 0)
  triclinic box = (0 0 0) to (2.7277292 2.3622828 4.2813955) with tilt (-1.34904 0 0)
  triclinic box = (0 0 0) to (2.7277292 2.3622828 4.3284438) with tilt (-1.34904 0 0)
  triclinic box = (0 0 0) to (2.7277292 2.3622828 4.3284438) with tilt (-1.3638646 0 0)
  triclinic box = (0 0 0) to (2.7277292 2.3622828 4.3284438) with tilt (-1.3638646 0 0)
  triclinic box = (0 0 0) to (2.7277292 2.3622828 4.3284438) with tilt (-1.3638646 0 0)
echo none
run 0
WARNING: No fixes with time integration, atoms won't move (src/src/verlet.cpp:60)
Per MPI rank memory allocation (min/avg/max) = 3.257 | 3.257 | 3.257 Mbytes
    PotEng          Pxx           E_mol          E_coul    
-8.8525138      423651.76      0              0            
Loop time of 1.083e-06 on 1 procs for 0 steps with 2 atoms

92.3% CPU use with 1 MPI tasks x no OpenMP threads

MPI task timing breakdown:
Section |  min time  |  avg time  |  max time  |%varavg| %total
---------------------------------------------------------------
Pair    | 0          | 0          | 0          |   0.0 |  0.00
Neigh   | 0          | 0          | 0          |   0.0 |  0.00
Comm    | 0          | 0          | 0          |   0.0 |  0.00
Output  | 0          | 0          | 0          |   0.0 |  0.00
Modify  | 0          | 0          | 0          |   0.0 |  0.00
Other   |            | 1.083e-06  |            |       |100.00

Nlocal:              2 ave           2 max           2 min
Histogram: 1 0 0 0 0 0 0 0 0 0
Nghost:            574 ave         574 max         574 min
Histogram: 1 0 0 0 0 0 0 0 0 0
Neighs:            182 ave         182 max         182 min
Histogram: 1 0 0 0 0 0 0 0 0 0

Total # of neighbors = 182
Ave neighs/atom = 91
Neighbor list builds = 0
Dangerous builds = 0
set atom * x 0.0 y 0.0 z 0.0
Setting atom values ...
  2 settings made for x
  2 settings made for y
  2 settings made for z
change_box all     x final 0 2.757378467332887 y final 0 2.387959800558481 z final 0 4.375492068087771      xy final -1.3786892336664436 xz final 0.0 yz final 0.0 units box
Changing box ...
  triclinic box = (0 0 0) to (2.7573785 2.3622828 4.3284438) with tilt (-1.3638646 0 0)
  triclinic box = (0 0 0) to (2.7573785 2.3879598 4.3284438) with tilt (-1.3638646 0 0)
  triclinic box = (0 0 0) to (2.7573785 2.3879598 4.3754921) with tilt (-1.3638646 0 0)
  triclinic box = (0 0 0) to (2.7573785 2.3879598 4.3754921) with tilt (-1.3786892 0 0)
  triclinic box = (0 0 0) to (2.7573785 2.3879598 4.3754921) with tilt (-1.3786892 0 0)
  triclinic box = (0 0 0) to (2.7573785 2.3879598 4.3754921) with tilt (-1.3786892 0 0)
echo none
run 0
WARNING: No fixes with time integration, atoms won't move (src/src/verlet.cpp:60)
Per MPI rank memory allocation (min/avg/max) = 3.257 | 3.257 | 3.257 Mbytes
    PotEng          Pxx           E_mol          E_coul    
-9.0866701      339389.08      0              0            
Loop time of 2.167e-06 on 1 procs for 0 steps with 2 atoms

230.7% CPU use with 1 MPI tasks x no OpenMP threads

MPI task timing breakdown:
Section |  min time  |  avg time  |  max time  |%varavg| %total
---------------------------------------------------------------
Pair    | 0          | 0          | 0          |   0.0 |  0.00
Neigh   | 0          | 0          | 0          |   0.0 |  0.00
Comm    | 0          | 0          | 0          |   0.0 |  0.00
Output  | 0          | 0          | 0          |   0.0 |  0.00
Modify  | 0          | 0          | 0          |   0.0 |  0.00
Other   |            | 2.167e-06  |            |       |100.00

Nlocal:              2 ave           2 max           2 min
Histogram: 1 0 0 0 0 0 0 0 0 0
Nghost:            574 ave         574 max         574 min
Histogram: 1 0 0 0 0 0 0 0 0 0
Neighs:            182 ave         182 max         182 min
Histogram: 1 0 0 0 0 0 0 0 0 0

Total # of neighbors = 182
Ave neighs/atom = 91
Neighbor list builds = 0
Dangerous builds = 0
set atom * x 0.0 y 0.0 z 0.0
Setting atom values ...
  2 settings made for x
  2 settings made for y
  2 settings made for z
change_box all     x final 0 2.7870276981644238 y final 0 2.41363678766126 z final 0 4.4225403698951675      xy final -1.3935138490822119 xz final 0.0 yz final 0.0 units box
Changing box ...
  triclinic box = (0 0 0) to (2.7870277 2.3879598 4.3754921) with tilt (-1.3786892 0 0)
  triclinic box = (0 0 0) to (2.7870277 2.4136368 4.3754921) with tilt (-1.3786892 0 0)
  triclinic box = (0 0 0) to (2.7870277 2.4136368 4.4225404) with tilt (-1.3786892 0 0)
  triclinic box = (0 0 0) to (2.7870277 2.4136368 4.4225404) with tilt (-1.3935138 0 0)
  triclinic box = (0 0 0) to (2.7870277 2.4136368 4.4225404) with tilt (-1.3935138 0 0)
  triclinic box = (0 0 0) to (2.7870277 2.4136368 4.4225404) with tilt (-1.3935138 0 0)
echo none
run 0
WARNING: No fixes with time integration, atoms won't move (src/src/verlet.cpp:60)
Per MPI rank memory allocation (min/avg/max) = 3.257 | 3.257 | 3.257 Mbytes
    PotEng          Pxx           E_mol          E_coul    
-9.2778748      265649.97      0              0            
Loop time of 9.58e-07 on 1 procs for 0 steps with 2 atoms

104.4% CPU use with 1 MPI tasks x no OpenMP threads

MPI task timing breakdown:
Section |  min time  |  avg time  |  max time  |%varavg| %total
---------------------------------------------------------------
Pair    | 0          | 0          | 0          |   0.0 |  0.00
Neigh   | 0          | 0          | 0          |   0.0 |  0.00
Comm    | 0          | 0          | 0          |   0.0 |  0.00
Output  | 0          | 0          | 0          |   0.0 |  0.00
Modify  | 0          | 0          | 0          |   0.0 |  0.00
Other   |            | 9.58e-07   |            |       |100.00

Nlocal:              2 ave           2 max           2 min
Histogram: 1 0 0 0 0 0 0 0 0 0
Nghost:            574 ave         574 max         574 min
Histogram: 1 0 0 0 0 0 0 0 0 0
Neighs:            158 ave         158 max         158 min
Histogram: 1 0 0 0 0 0 0 0 0 0

Total # of neighbors = 158
Ave neighs/atom = 79
Neighbor list builds = 0
Dangerous builds = 0
set atom * x 0.0 y 0.0 z 0.0
Setting atom values ...
  2 settings made for x
  2 settings made for y
  2 settings made for z
change_box all     x final 0 2.81667692899596 y final 0 2.4393137747640394 z final 0 4.469588671702563      xy final -1.40833846449798 xz final 0.0 yz final 0.0 units box
Changing box ...
  triclinic box = (0 0 0) to (2.8166769 2.4136368 4.4225404) with tilt (-1.3935138 0 0)
  triclinic box = (0 0 0) to (2.8166769 2.4393138 4.4225404) with tilt (-1.3935138 0 0)
  triclinic box = (0 0 0) to (2.8166769 2.4393138 4.4695887) with tilt (-1.3935138 0 0)
  triclinic box = (0 0 0) to (2.8166769 2.4393138 4.4695887) with tilt (-1.4083385 0 0)
  triclinic box = (0 0 0) to (2.8166769 2.4393138 4.4695887) with tilt (-1.4083385 0 0)
  triclinic box = (0 0 0) to (2.8166769 2.4393138 4.4695887) with tilt (-1.4083385 0 0)
echo none
run 0
WARNING: No fixes with time integration, atoms won't move (src/src/verlet.cpp:60)
Per MPI rank memory allocation (min/avg/max) = 3.257 | 3.257 | 3.257 Mbytes
    PotEng          Pxx           E_mol          E_coul    
-9.4300592      201402.37      0              0            
Loop time of 8.75e-07 on 1 procs for 0 steps with 2 atoms

342.9% CPU use with 1 MPI tasks x no OpenMP threads

MPI task timing breakdown:
Section |  min time  |  avg time  |  max time  |%varavg| %total
---------------------------------------------------------------
Pair    | 0          | 0          | 0          |   0.0 |  0.00
Neigh   | 0          | 0          | 0          |   0.0 |  0.00
Comm    | 0          | 0          | 0          |   0.0 |  0.00
Output  | 0          | 0          | 0          |   0.0 |  0.00
Modify  | 0          | 0          | 0          |   0.0 |  0.00
Other   |            | 8.75e-07   |            |       |100.00

Nlocal:              2 ave           2 max           2 min
Histogram: 1 0 0 0 0 0 0 0 0 0
Nghost:            574 ave         574 max         574 min
Histogram: 1 0 0 0 0 0 0 0 0 0
Neighs:            158 ave         158 max         158 min
Histogram: 1 0 0 0 0 0 0 0 0 0

Total # of neighbors = 158
Ave neighs/atom = 79
Neighbor list builds = 0
Dangerous builds = 0
set atom * x 0.0 y 0.0 z 0.0
Setting atom values ...
  2 settings made for x
  2 settings made for y
  2 settings made for z
change_box all     x final 0 2.8463261598274965 y final 0 2.4649907618668188 z final 0 4.516636973509958      xy final -1.4231630799137482 xz final 0.0 yz final 0.0 units box
Changing box ...
  triclinic box = (0 0 0) to (2.8463262 2.4393138 4.4695887) with tilt (-1.4083385 0 0)
  triclinic box = (0 0 0) to (2.8463262 2.4649908 4.4695887) with tilt (-1.4083385 0 0)
  triclinic box = (0 0 0) to (2.8463262 2.4649908 4.516637) with tilt (-1.4083385 0 0)
  triclinic box = (0 0 0) to (2.8463262 2.4649908 4.516637) with tilt (-1.4231631 0 0)
  triclinic box = (0 0 0) to (2.8463262 2.4649908 4.516637) with tilt (-1.4231631 0 0)
  triclinic box = (0 0 0) to (2.8463262 2.4649908 4.516637) with tilt (-1.4231631 0 0)
echo none
run 0
WARNING: No fixes with time integration, atoms won't move (src/src/verlet.cpp:60)
Per MPI rank memory allocation (min/avg/max) = 3.257 | 3.257 | 3.257 Mbytes
    PotEng          Pxx           E_mol          E_coul    
-9.5474859      145455.65      0              0            
Loop time of 5.83e-07 on 1 procs for 0 steps with 2 atoms

0.0% CPU use with 1 MPI tasks x no OpenMP threads

MPI task timing breakdown:
Section |  min time  |  avg time  |  max time  |%varavg| %total
---------------------------------------------------------------
Pair    | 0          | 0          | 0          |   0.0 |  0.00
Neigh   | 0          | 0          | 0          |   0.0 |  0.00
Comm    | 0          | 0          | 0          |   0.0 |  0.00
Output  | 0          | 0          | 0          |   0.0 |  0.00
Modify  | 0          | 0          | 0          |   0.0 |  0.00
Other   |            | 5.83e-07   |            |       |100.00

Nlocal:              2 ave           2 max           2 min
Histogram: 1 0 0 0 0 0 0 0 0 0
Nghost:            574 ave         574 max         574 min
Histogram: 1 0 0 0 0 0 0 0 0 0
Neighs:            158 ave         158 max         158 min
Histogram: 1 0 0 0 0 0 0 0 0 0

Total # of neighbors = 158
Ave neighs/atom = 79
Neighbor list builds = 0
Dangerous builds = 0
set atom * x 0.0 y 0.0 z 0.0
Setting atom values ...
  2 settings made for x
  2 settings made for y
  2 settings made for z
change_box all     x final 0 2.875975390659033 y final 0 2.490667748969598 z final 0 4.563685275317353      xy final -1.4379876953295165 xz final 0.0 yz final 0.0 units box
Changing box ...
  triclinic box = (0 0 0) to (2.8759754 2.4649908 4.516637) with tilt (-1.4231631 0 0)
  triclinic box = (0 0 0) to (2.8759754 2.4906677 4.516637) with tilt (-1.4231631 0 0)
  triclinic box = (0 0 0) to (2.8759754 2.4906677 4.5636853) with tilt (-1.4231631 0 0)
  triclinic box = (0 0 0) to (2.8759754 2.4906677 4.5636853) with tilt (-1.4379877 0 0)
  triclinic box = (0 0 0) to (2.8759754 2.4906677 4.5636853) with tilt (-1.4379877 0 0)
  triclinic box = (0 0 0) to (2.8759754 2.4906677 4.5636853) with tilt (-1.4379877 0 0)
echo none
run 0
WARNING: No fixes with time integration, atoms won't move (src/src/verlet.cpp:60)
Per MPI rank memory allocation (min/avg/max) = 3.257 | 3.257 | 3.257 Mbytes
    PotEng          Pxx           E_mol          E_coul    
-9.633422       97239.334      0              0            
Loop time of 7.91e-07 on 1 procs for 0 steps with 2 atoms

126.4% CPU use with 1 MPI tasks x no OpenMP threads

MPI task timing breakdown:
Section |  min time  |  avg time  |  max time  |%varavg| %total
---------------------------------------------------------------
Pair    | 0          | 0          | 0          |   0.0 |  0.00
Neigh   | 0          | 0          | 0          |   0.0 |  0.00
Comm    | 0          | 0          | 0          |   0.0 |  0.00
Output  | 0          | 0          | 0          |   0.0 |  0.00
Modify  | 0          | 0          | 0          |   0.0 |  0.00
Other   |            | 7.91e-07   |            |       |100.00

Nlocal:              2 ave           2 max           2 min
Histogram: 1 0 0 0 0 0 0 0 0 0
Nghost:            574 ave         574 max         574 min
Histogram: 1 0 0 0 0 0 0 0 0 0
Neighs:            146 ave         146 max         146 min
Histogram: 1 0 0 0 0 0 0 0 0 0

Total # of neighbors = 146
Ave neighs/atom = 73
Neighbor list builds = 0
Dangerous builds = 0
set atom * x 0.0 y 0.0 z 0.0
Setting atom values ...
  2 settings made for x
  2 settings made for y
  2 settings made for z
change_box all     x final 0 2.905624621490569 y final 0 2.5163447360723774 z final 0 4.610733577124749      xy final -1.4528123107452846 xz final 0.0 yz final 0.0 units box
Changing box ...
  triclinic box = (0 0 0) to (2.9056246 2.4906677 4.5636853) with tilt (-1.4379877 0 0)
  triclinic box = (0 0 0) to (2.9056246 2.5163447 4.5636853) with tilt (-1.4379877 0 0)
  triclinic box = (0 0 0) to (2.9056246 2.5163447 4.6107336) with tilt (-1.4379877 0 0)
  triclinic box = (0 0 0) to (2.9056246 2.5163447 4.6107336) with tilt (-1.4528123 0 0)
  triclinic box = (0 0 0) to (2.9056246 2.5163447 4.6107336) with tilt (-1.4528123 0 0)
  triclinic box = (0 0 0) to (2.9056246 2.5163447 4.6107336) with tilt (-1.4528123 0 0)
echo none
run 0
WARNING: No fixes with time integration, atoms won't move (src/src/verlet.cpp:60)
Per MPI rank memory allocation (min/avg/max) = 3.257 | 3.257 | 3.257 Mbytes
    PotEng          Pxx           E_mol          E_coul    
-9.6915809      57258.863      0              0            
Loop time of 1.167e-06 on 1 procs for 0 steps with 2 atoms

171.4% CPU use with 1 MPI tasks x no OpenMP threads

MPI task timing breakdown:
Section |  min time  |  avg time  |  max time  |%varavg| %total
---------------------------------------------------------------
Pair    | 0          | 0          | 0          |   0.0 |  0.00
Neigh   | 0          | 0          | 0          |   0.0 |  0.00
Comm    | 0          | 0          | 0          |   0.0 |  0.00
Output  | 0          | 0          | 0          |   0.0 |  0.00
Modify  | 0          | 0          | 0          |   0.0 |  0.00
Other   |            | 1.167e-06  |            |       |100.00

Nlocal:              2 ave           2 max           2 min
Histogram: 1 0 0 0 0 0 0 0 0 0
Nghost:            574 ave         574 max         574 min
Histogram: 1 0 0 0 0 0 0 0 0 0
Neighs:            146 ave         146 max         146 min
Histogram: 1 0 0 0 0 0 0 0 0 0

Total # of neighbors = 146
Ave neighs/atom = 73
Neighbor list builds = 0
Dangerous builds = 0
set atom * x 0.0 y 0.0 z 0.0
Setting atom values ...
  2 settings made for x
  2 settings made for y
  2 settings made for z
change_box all     x final 0 2.935273852322106 y final 0 2.542021723175157 z final 0 4.657781878932144      xy final -1.467636926161053 xz final 0.0 yz final 0.0 units box
Changing box ...
  triclinic box = (0 0 0) to (2.9352739 2.5163447 4.6107336) with tilt (-1.4528123 0 0)
  triclinic box = (0 0 0) to (2.9352739 2.5420217 4.6107336) with tilt (-1.4528123 0 0)
  triclinic box = (0 0 0) to (2.9352739 2.5420217 4.6577819) with tilt (-1.4528123 0 0)
  triclinic box = (0 0 0) to (2.9352739 2.5420217 4.6577819) with tilt (-1.4676369 0 0)
  triclinic box = (0 0 0) to (2.9352739 2.5420217 4.6577819) with tilt (-1.4676369 0 0)
  triclinic box = (0 0 0) to (2.9352739 2.5420217 4.6577819) with tilt (-1.4676369 0 0)
echo none
run 0
WARNING: No fixes with time integration, atoms won't move (src/src/verlet.cpp:60)
Per MPI rank memory allocation (min/avg/max) = 3.257 | 3.257 | 3.257 Mbytes
    PotEng          Pxx           E_mol          E_coul    
-9.7251215      22109.395      0              0            
Loop time of 1.084e-06 on 1 procs for 0 steps with 2 atoms

92.3% CPU use with 1 MPI tasks x no OpenMP threads

MPI task timing breakdown:
Section |  min time  |  avg time  |  max time  |%varavg| %total
---------------------------------------------------------------
Pair    | 0          | 0          | 0          |   0.0 |  0.00
Neigh   | 0          | 0          | 0          |   0.0 |  0.00
Comm    | 0          | 0          | 0          |   0.0 |  0.00
Output  | 0          | 0          | 0          |   0.0 |  0.00
Modify  | 0          | 0          | 0          |   0.0 |  0.00
Other   |            | 1.084e-06  |            |       |100.00

Nlocal:              2 ave           2 max           2 min
Histogram: 1 0 0 0 0 0 0 0 0 0
Nghost:            574 ave         574 max         574 min
Histogram: 1 0 0 0 0 0 0 0 0 0
Neighs:            146 ave         146 max         146 min
Histogram: 1 0 0 0 0 0 0 0 0 0

Total # of neighbors = 146
Ave neighs/atom = 73
Neighbor list builds = 0
Dangerous builds = 0
set atom * x 0.0 y 0.0 z 0.0
Setting atom values ...
  2 settings made for x
  2 settings made for y
  2 settings made for z
change_box all     x final 0 2.964923083153642 y final 0 2.567698710277936 z final 0 4.704830180739539      xy final -1.482461541576821 xz final 0.0 yz final 0.0 units box
Changing box ...
  triclinic box = (0 0 0) to (2.9649231 2.5420217 4.6577819) with tilt (-1.4676369 0 0)
  triclinic box = (0 0 0) to (2.9649231 2.5676987 4.6577819) with tilt (-1.4676369 0 0)
  triclinic box = (0 0 0) to (2.9649231 2.5676987 4.7048302) with tilt (-1.4676369 0 0)
  triclinic box = (0 0 0) to (2.9649231 2.5676987 4.7048302) with tilt (-1.4824615 0 0)
  triclinic box = (0 0 0) to (2.9649231 2.5676987 4.7048302) with tilt (-1.4824615 0 0)
  triclinic box = (0 0 0) to (2.9649231 2.5676987 4.7048302) with tilt (-1.4824615 0 0)
echo none
run 0
WARNING: No fixes with time integration, atoms won't move (src/src/verlet.cpp:60)
Per MPI rank memory allocation (min/avg/max) = 3.257 | 3.257 | 3.257 Mbytes
    PotEng          Pxx           E_mol          E_coul    
-9.7356054     -8765.6599      0              0            
Loop time of 1.25e-06 on 1 procs for 0 steps with 2 atoms

80.0% CPU use with 1 MPI tasks x no OpenMP threads

MPI task timing breakdown:
Section |  min time  |  avg time  |  max time  |%varavg| %total
---------------------------------------------------------------
Pair    | 0          | 0          | 0          |   0.0 |  0.00
Neigh   | 0          | 0          | 0          |   0.0 |  0.00
Comm    | 0          | 0          | 0          |   0.0 |  0.00
Output  | 0          | 0          | 0          |   0.0 |  0.00
Modify  | 0          | 0          | 0          |   0.0 |  0.00
Other   |            | 1.25e-06   |            |       |100.00

Nlocal:              2 ave           2 max           2 min
Histogram: 1 0 0 0 0 0 0 0 0 0
Nghost:            574 ave         574 max         574 min
Histogram: 1 0 0 0 0 0 0 0 0 0
Neighs:            146 ave         146 max         146 min
Histogram: 1 0 0 0 0 0 0 0 0 0

Total # of neighbors = 146
Ave neighs/atom = 73
Neighbor list builds = 0
Dangerous builds = 0
set atom * x 0.0 y 0.0 z 0.0
Setting atom values ...
  2 settings made for x
  2 settings made for y
  2 settings made for z
change_box all     x final 0 2.994572313985179 y final 0 2.593375697380716 z final 0 4.751878482546935      xy final -1.4972861569925895 xz final 0.0 yz final 0.0 units box
Changing box ...
  triclinic box = (0 0 0) to (2.9945723 2.5676987 4.7048302) with tilt (-1.4824615 0 0)
  triclinic box = (0 0 0) to (2.9945723 2.5933757 4.7048302) with tilt (-1.4824615 0 0)
  triclinic box = (0 0 0) to (2.9945723 2.5933757 4.7518785) with tilt (-1.4824615 0 0)
  triclinic box = (0 0 0) to (2.9945723 2.5933757 4.7518785) with tilt (-1.4972862 0 0)
  triclinic box = (0 0 0) to (2.9945723 2.5933757 4.7518785) with tilt (-1.4972862 0 0)
  triclinic box = (0 0 0) to (2.9945723 2.5933757 4.7518785) with tilt (-1.4972862 0 0)
echo none
run 0
WARNING: No fixes with time integration, atoms won't move (src/src/verlet.cpp:60)
Per MPI rank memory allocation (min/avg/max) = 3.257 | 3.257 | 3.257 Mbytes
    PotEng          Pxx           E_mol          E_coul    
-9.7253072     -36199.41       0              0            
Loop time of 9.58e-07 on 1 procs for 0 steps with 2 atoms

104.4% CPU use with 1 MPI tasks x no OpenMP threads

MPI task timing breakdown:
Section |  min time  |  avg time  |  max time  |%varavg| %total
---------------------------------------------------------------
Pair    | 0          | 0          | 0          |   0.0 |  0.00
Neigh   | 0          | 0          | 0          |   0.0 |  0.00
Comm    | 0          | 0          | 0          |   0.0 |  0.00
Output  | 0          | 0          | 0          |   0.0 |  0.00
Modify  | 0          | 0          | 0          |   0.0 |  0.00
Other   |            | 9.58e-07   |            |       |100.00

Nlocal:              2 ave           2 max           2 min
Histogram: 1 0 0 0 0 0 0 0 0 0
Nghost:            499 ave         499 max         499 min
Histogram: 1 0 0 0 0 0 0 0 0 0
Neighs:            146 ave         146 max         146 min
Histogram: 1 0 0 0 0 0 0 0 0 0

Total # of neighbors = 146
Ave neighs/atom = 73
Neighbor list builds = 0
Dangerous builds = 0
set atom * x 0.0 y 0.0 z 0.0
Setting atom values ...
  2 settings made for x
  2 settings made for y
  2 settings made for z
change_box all     x final 0 3.0242215448167147 y final 0 2.6190526844834947 z final 0 4.79892678435433      xy final -1.5121107724083573 xz final 0.0 yz final 0.0 units box
Changing box ...
  triclinic box = (0 0 0) to (3.0242215 2.5933757 4.7518785) with tilt (-1.4972862 0 0)
  triclinic box = (0 0 0) to (3.0242215 2.6190527 4.7518785) with tilt (-1.4972862 0 0)
  triclinic box = (0 0 0) to (3.0242215 2.6190527 4.7989268) with tilt (-1.4972862 0 0)
  triclinic box = (0 0 0) to (3.0242215 2.6190527 4.7989268) with tilt (-1.5121108 0 0)
  triclinic box = (0 0 0) to (3.0242215 2.6190527 4.7989268) with tilt (-1.5121108 0 0)
  triclinic box = (0 0 0) to (3.0242215 2.6190527 4.7989268) with tilt (-1.5121108 0 0)
echo none
run 0
WARNING: No fixes with time integration, atoms won't move (src/src/verlet.cpp:60)
Per MPI rank memory allocation (min/avg/max) = 3.257 | 3.257 | 3.257 Mbytes
    PotEng          Pxx           E_mol          E_coul    
-9.6956379     -60276.394      0              0            
Loop time of 9.17e-07 on 1 procs for 0 steps with 2 atoms

218.1% CPU use with 1 MPI tasks x no OpenMP threads

MPI task timing breakdown:
Section |  min time  |  avg time  |  max time  |%varavg| %total
---------------------------------------------------------------
Pair    | 0          | 0          | 0          |   0.0 |  0.00
Neigh   | 0          | 0          | 0          |   0.0 |  0.00
Comm    | 0          | 0          | 0          |   0.0 |  0.00
Output  | 0          | 0          | 0          |   0.0 |  0.00
Modify  | 0          | 0          | 0          |   0.0 |  0.00
Other   |            | 9.17e-07   |            |       |100.00

Nlocal:              2 ave           2 max           2 min
Histogram: 1 0 0 0 0 0 0 0 0 0
Nghost:            499 ave         499 max         499 min
Histogram: 1 0 0 0 0 0 0 0 0 0
Neighs:            146 ave         146 max         146 min
Histogram: 1 0 0 0 0 0 0 0 0 0

Total # of neighbors = 146
Ave neighs/atom = 73
Neighbor list builds = 0
Dangerous builds = 0
set atom * x 0.0 y 0.0 z 0.0
Setting atom values ...
  2 settings made for x
  2 settings made for y
  2 settings made for z
change_box all     x final 0 3.053870775648252 y final 0 2.644729671586275 z final 0 4.845975086161727      xy final -1.526935387824126 xz final 0.0 yz final 0.0 units box
Changing box ...
  triclinic box = (0 0 0) to (3.0538708 2.6190527 4.7989268) with tilt (-1.5121108 0 0)
  triclinic box = (0 0 0) to (3.0538708 2.6447297 4.7989268) with tilt (-1.5121108 0 0)
  triclinic box = (0 0 0) to (3.0538708 2.6447297 4.8459751) with tilt (-1.5121108 0 0)
  triclinic box = (0 0 0) to (3.0538708 2.6447297 4.8459751) with tilt (-1.5269354 0 0)
  triclinic box = (0 0 0) to (3.0538708 2.6447297 4.8459751) with tilt (-1.5269354 0 0)
  triclinic box = (0 0 0) to (3.0538708 2.6447297 4.8459751) with tilt (-1.5269354 0 0)
echo none
run 0
WARNING: No fixes with time integration, atoms won't move (src/src/verlet.cpp:60)
Per MPI rank memory allocation (min/avg/max) = 3.257 | 3.257 | 3.257 Mbytes
    PotEng          Pxx           E_mol          E_coul    
-9.6483588     -81295.758      0              0            
Loop time of 9.58e-07 on 1 procs for 0 steps with 2 atoms

208.8% CPU use with 1 MPI tasks x no OpenMP threads

MPI task timing breakdown:
Section |  min time  |  avg time  |  max time  |%varavg| %total
---------------------------------------------------------------
Pair    | 0          | 0          | 0          |   0.0 |  0.00
Neigh   | 0          | 0          | 0          |   0.0 |  0.00
Comm    | 0          | 0          | 0          |   0.0 |  0.00
Output  | 0          | 0          | 0          |   0.0 |  0.00
Modify  | 0          | 0          | 0          |   0.0 |  0.00
Other   |            | 9.58e-07   |            |       |100.00

Nlocal:              2 ave           2 max           2 min
Histogram: 1 0 0 0 0 0 0 0 0 0
Nghost:            499 ave         499 max         499 min
Histogram: 1 0 0 0 0 0 0 0 0 0
Neighs:            134 ave         134 max         134 min
Histogram: 1 0 0 0 0 0 0 0 0 0

Total # of neighbors = 134
Ave neighs/atom = 67
Neighbor list builds = 0
Dangerous builds = 0
set atom * x 0.0 y 0.0 z 0.0
Setting atom values ...
  2 settings made for x
  2 settings made for y
  2 settings made for z
change_box all     x final 0 3.083520006479788 y final 0 2.670406658689054 z final 0 4.893023387969121      xy final -1.541760003239894 xz final 0.0 yz final 0.0 units box
Changing box ...
  triclinic box = (0 0 0) to (3.08352 2.6447297 4.8459751) with tilt (-1.5269354 0 0)
  triclinic box = (0 0 0) to (3.08352 2.6704067 4.8459751) with tilt (-1.5269354 0 0)
  triclinic box = (0 0 0) to (3.08352 2.6704067 4.8930234) with tilt (-1.5269354 0 0)
  triclinic box = (0 0 0) to (3.08352 2.6704067 4.8930234) with tilt (-1.54176 0 0)
  triclinic box = (0 0 0) to (3.08352 2.6704067 4.8930234) with tilt (-1.54176 0 0)
  triclinic box = (0 0 0) to (3.08352 2.6704067 4.8930234) with tilt (-1.54176 0 0)
echo none
run 0
WARNING: No fixes with time integration, atoms won't move (src/src/verlet.cpp:60)
Per MPI rank memory allocation (min/avg/max) = 3.257 | 3.257 | 3.257 Mbytes
    PotEng          Pxx           E_mol          E_coul    
-9.5849362     -100987.55      0              0            
Loop time of 1.25e-06 on 1 procs for 0 steps with 2 atoms

160.0% CPU use with 1 MPI tasks x no OpenMP threads

MPI task timing breakdown:
Section |  min time  |  avg time  |  max time  |%varavg| %total
---------------------------------------------------------------
Pair    | 0          | 0          | 0          |   0.0 |  0.00
Neigh   | 0          | 0          | 0          |   0.0 |  0.00
Comm    | 0          | 0          | 0          |   0.0 |  0.00
Output  | 0          | 0          | 0          |   0.0 |  0.00
Modify  | 0          | 0          | 0          |   0.0 |  0.00
Other   |            | 1.25e-06   |            |       |100.00

Nlocal:              2 ave           2 max           2 min
Histogram: 1 0 0 0 0 0 0 0 0 0
Nghost:            499 ave         499 max         499 min
Histogram: 1 0 0 0 0 0 0 0 0 0
Neighs:            134 ave         134 max         134 min
Histogram: 1 0 0 0 0 0 0 0 0 0

Total # of neighbors = 134
Ave neighs/atom = 67
Neighbor list builds = 0
Dangerous builds = 0
set atom * x 0.0 y 0.0 z 0.0
Setting atom values ...
  2 settings made for x
  2 settings made for y
  2 settings made for z
change_box all     x final 0 3.113169237311325 y final 0 2.6960836457918336 z final 0 4.940071689776517      xy final -1.5565846186556624 xz final 0.0 yz final 0.0 units box
Changing box ...
  triclinic box = (0 0 0) to (3.1131692 2.6704067 4.8930234) with tilt (-1.54176 0 0)
  triclinic box = (0 0 0) to (3.1131692 2.6960836 4.8930234) with tilt (-1.54176 0 0)
  triclinic box = (0 0 0) to (3.1131692 2.6960836 4.9400717) with tilt (-1.54176 0 0)
  triclinic box = (0 0 0) to (3.1131692 2.6960836 4.9400717) with tilt (-1.5565846 0 0)
  triclinic box = (0 0 0) to (3.1131692 2.6960836 4.9400717) with tilt (-1.5565846 0 0)
  triclinic box = (0 0 0) to (3.1131692 2.6960836 4.9400717) with tilt (-1.5565846 0 0)
echo none
run 0
WARNING: No fixes with time integration, atoms won't move (src/src/verlet.cpp:60)
Per MPI rank memory allocation (min/avg/max) = 3.257 | 3.257 | 3.257 Mbytes
    PotEng          Pxx           E_mol          E_coul    
-9.5052801     -120932.41      0              0            
Loop time of 8.75e-07 on 1 procs for 0 steps with 2 atoms

114.3% CPU use with 1 MPI tasks x no OpenMP threads

MPI task timing breakdown:
Section |  min time  |  avg time  |  max time  |%varavg| %total
---------------------------------------------------------------
Pair    | 0          | 0          | 0          |   0.0 |  0.00
Neigh   | 0          | 0          | 0          |   0.0 |  0.00
Comm    | 0          | 0          | 0          |   0.0 |  0.00
Output  | 0          | 0          | 0          |   0.0 |  0.00
Modify  | 0          | 0          | 0          |   0.0 |  0.00
Other   |            | 8.75e-07   |            |       |100.00

Nlocal:              2 ave           2 max           2 min
Histogram: 1 0 0 0 0 0 0 0 0 0
Nghost:            499 ave         499 max         499 min
Histogram: 1 0 0 0 0 0 0 0 0 0
Neighs:            134 ave         134 max         134 min
Histogram: 1 0 0 0 0 0 0 0 0 0

Total # of neighbors = 134
Ave neighs/atom = 67
Neighbor list builds = 0
Dangerous builds = 0
set atom * x 0.0 y 0.0 z 0.0
Setting atom values ...
  2 settings made for x
  2 settings made for y
  2 settings made for z
change_box all     x final 0 3.1428184681428606 y final 0 2.7217606328946125 z final 0 4.987119991583912      xy final -1.5714092340714303 xz final 0.0 yz final 0.0 units box
Changing box ...
  triclinic box = (0 0 0) to (3.1428185 2.6960836 4.9400717) with tilt (-1.5565846 0 0)
  triclinic box = (0 0 0) to (3.1428185 2.7217606 4.9400717) with tilt (-1.5565846 0 0)
  triclinic box = (0 0 0) to (3.1428185 2.7217606 4.98712) with tilt (-1.5565846 0 0)
  triclinic box = (0 0 0) to (3.1428185 2.7217606 4.98712) with tilt (-1.5714092 0 0)
  triclinic box = (0 0 0) to (3.1428185 2.7217606 4.98712) with tilt (-1.5714092 0 0)
  triclinic box = (0 0 0) to (3.1428185 2.7217606 4.98712) with tilt (-1.5714092 0 0)
echo none
run 0
WARNING: No fixes with time integration, atoms won't move (src/src/verlet.cpp:60)
Per MPI rank memory allocation (min/avg/max) = 3.257 | 3.257 | 3.257 Mbytes
    PotEng          Pxx           E_mol          E_coul    
-9.4093189     -140319.03      0              0            
Loop time of 8.75e-07 on 1 procs for 0 steps with 2 atoms

114.3% CPU use with 1 MPI tasks x no OpenMP threads

MPI task timing breakdown:
Section |  min time  |  avg time  |  max time  |%varavg| %total
---------------------------------------------------------------
Pair    | 0          | 0          | 0          |   0.0 |  0.00
Neigh   | 0          | 0          | 0          |   0.0 |  0.00
Comm    | 0          | 0          | 0          |   0.0 |  0.00
Output  | 0          | 0          | 0          |   0.0 |  0.00
Modify  | 0          | 0          | 0          |   0.0 |  0.00
Other   |            | 8.75e-07   |            |       |100.00

Nlocal:              2 ave           2 max           2 min
Histogram: 1 0 0 0 0 0 0 0 0 0
Nghost:            499 ave         499 max         499 min
Histogram: 1 0 0 0 0 0 0 0 0 0
Neighs:            134 ave         134 max         134 min
Histogram: 1 0 0 0 0 0 0 0 0 0

Total # of neighbors = 134
Ave neighs/atom = 67
Neighbor list builds = 0
Dangerous builds = 0
set atom * x 0.0 y 0.0 z 0.0
Setting atom values ...
  2 settings made for x
  2 settings made for y
  2 settings made for z
change_box all     x final 0 3.1724676989743976 y final 0 2.747437619997392 z final 0 5.034168293391308      xy final -1.5862338494871988 xz final 0.0 yz final 0.0 units box
Changing box ...
  triclinic box = (0 0 0) to (3.1724677 2.7217606 4.98712) with tilt (-1.5714092 0 0)
  triclinic box = (0 0 0) to (3.1724677 2.7474376 4.98712) with tilt (-1.5714092 0 0)
  triclinic box = (0 0 0) to (3.1724677 2.7474376 5.0341683) with tilt (-1.5714092 0 0)
  triclinic box = (0 0 0) to (3.1724677 2.7474376 5.0341683) with tilt (-1.5862338 0 0)
  triclinic box = (0 0 0) to (3.1724677 2.7474376 5.0341683) with tilt (-1.5862338 0 0)
  triclinic box = (0 0 0) to (3.1724677 2.7474376 5.0341683) with tilt (-1.5862338 0 0)
echo none
run 0
WARNING: No fixes with time integration, atoms won't move (src/src/verlet.cpp:60)
Per MPI rank memory allocation (min/avg/max) = 3.257 | 3.257 | 3.257 Mbytes
    PotEng          Pxx           E_mol          E_coul    
-9.2974385     -158620.75      0              0            
Loop time of 1.083e-06 on 1 procs for 0 steps with 2 atoms

184.7% CPU use with 1 MPI tasks x no OpenMP threads

MPI task timing breakdown:
Section |  min time  |  avg time  |  max time  |%varavg| %total
---------------------------------------------------------------
Pair    | 0          | 0          | 0          |   0.0 |  0.00
Neigh   | 0          | 0          | 0          |   0.0 |  0.00
Comm    | 0          | 0          | 0          |   0.0 |  0.00
Output  | 0          | 0          | 0          |   0.0 |  0.00
Modify  | 0          | 0          | 0          |   0.0 |  0.00
Other   |            | 1.083e-06  |            |       |100.00

Nlocal:              2 ave           2 max           2 min
Histogram: 1 0 0 0 0 0 0 0 0 0
Nghost:            499 ave         499 max         499 min
Histogram: 1 0 0 0 0 0 0 0 0 0
Neighs:            134 ave         134 max         134 min
Histogram: 1 0 0 0 0 0 0 0 0 0

Total # of neighbors = 134
Ave neighs/atom = 67
Neighbor list builds = 0
Dangerous builds = 0
set atom * x 0.0 y 0.0 z 0.0
Setting atom values ...
  2 settings made for x
  2 settings made for y
  2 settings made for z
change_box all     x final 0 3.2021169298059333 y final 0 2.773114607100171 z final 0 5.081216595198702      xy final -1.6010584649029667 xz final 0.0 yz final 0.0 units box
Changing box ...
  triclinic box = (0 0 0) to (3.2021169 2.7474376 5.0341683) with tilt (-1.5862338 0 0)
  triclinic box = (0 0 0) to (3.2021169 2.7731146 5.0341683) with tilt (-1.5862338 0 0)
  triclinic box = (0 0 0) to (3.2021169 2.7731146 5.0812166) with tilt (-1.5862338 0 0)
  triclinic box = (0 0 0) to (3.2021169 2.7731146 5.0812166) with tilt (-1.6010585 0 0)
  triclinic box = (0 0 0) to (3.2021169 2.7731146 5.0812166) with tilt (-1.6010585 0 0)
  triclinic box = (0 0 0) to (3.2021169 2.7731146 5.0812166) with tilt (-1.6010585 0 0)
echo none
run 0
WARNING: No fixes with time integration, atoms won't move (src/src/verlet.cpp:60)
Per MPI rank memory allocation (min/avg/max) = 3.257 | 3.257 | 3.257 Mbytes
    PotEng          Pxx           E_mol          E_coul    
-9.1702666     -175518.52      0              0            
Loop time of 7.08e-07 on 1 procs for 0 steps with 2 atoms

282.5% CPU use with 1 MPI tasks x no OpenMP threads

MPI task timing breakdown:
Section |  min time  |  avg time  |  max time  |%varavg| %total
---------------------------------------------------------------
Pair    | 0          | 0          | 0          |   0.0 |  0.00
Neigh   | 0          | 0          | 0          |   0.0 |  0.00
Comm    | 0          | 0          | 0          |   0.0 |  0.00
Output  | 0          | 0          | 0          |   0.0 |  0.00
Modify  | 0          | 0          | 0          |   0.0 |  0.00
Other   |            | 7.08e-07   |            |       |100.00

Nlocal:              2 ave           2 max           2 min
Histogram: 1 0 0 0 0 0 0 0 0 0
Nghost:            499 ave         499 max         499 min
Histogram: 1 0 0 0 0 0 0 0 0 0
Neighs:            134 ave         134 max         134 min
Histogram: 1 0 0 0 0 0 0 0 0 0

Total # of neighbors = 134
Ave neighs/atom = 67
Neighbor list builds = 0
Dangerous builds = 0
set atom * x 0.0 y 0.0 z 0.0
Setting atom values ...
  2 settings made for x
  2 settings made for y
  2 settings made for z
change_box all     x final 0 3.231766160637471 y final 0 2.798791594202951 z final 0 5.128264897006099      xy final -1.6158830803187354 xz final 0.0 yz final 0.0 units box
Changing box ...
  triclinic box = (0 0 0) to (3.2317662 2.7731146 5.0812166) with tilt (-1.6010585 0 0)
  triclinic box = (0 0 0) to (3.2317662 2.7987916 5.0812166) with tilt (-1.6010585 0 0)
  triclinic box = (0 0 0) to (3.2317662 2.7987916 5.1282649) with tilt (-1.6010585 0 0)
  triclinic box = (0 0 0) to (3.2317662 2.7987916 5.1282649) with tilt (-1.6158831 0 0)
  triclinic box = (0 0 0) to (3.2317662 2.7987916 5.1282649) with tilt (-1.6158831 0 0)
  triclinic box = (0 0 0) to (3.2317662 2.7987916 5.1282649) with tilt (-1.6158831 0 0)
echo none
run 0
WARNING: No fixes with time integration, atoms won't move (src/src/verlet.cpp:60)
Per MPI rank memory allocation (min/avg/max) = 3.257 | 3.257 | 3.257 Mbytes
    PotEng          Pxx           E_mol          E_coul    
-9.0285598     -190787.5       0              0            
Loop time of 1.083e-06 on 1 procs for 0 steps with 2 atoms

184.7% CPU use with 1 MPI tasks x no OpenMP threads

MPI task timing breakdown:
Section |  min time  |  avg time  |  max time  |%varavg| %total
---------------------------------------------------------------
Pair    | 0          | 0          | 0          |   0.0 |  0.00
Neigh   | 0          | 0          | 0          |   0.0 |  0.00
Comm    | 0          | 0          | 0          |   0.0 |  0.00
Output  | 0          | 0          | 0          |   0.0 |  0.00
Modify  | 0          | 0          | 0          |   0.0 |  0.00
Other   |            | 1.083e-06  |            |       |100.00

Nlocal:              2 ave           2 max           2 min
Histogram: 1 0 0 0 0 0 0 0 0 0
Nghost:            499 ave         499 max         499 min
Histogram: 1 0 0 0 0 0 0 0 0 0
Neighs:            134 ave         134 max         134 min
Histogram: 1 0 0 0 0 0 0 0 0 0

Total # of neighbors = 134
Ave neighs/atom = 67
Neighbor list builds = 0
Dangerous builds = 0
set atom * x 0.0 y 0.0 z 0.0
Setting atom values ...
  2 settings made for x
  2 settings made for y
  2 settings made for z
change_box all     x final 0 3.2614153914690065 y final 0 2.8244685813057298 z final 0 5.175313198813494      xy final -1.6307076957345032 xz final 0.0 yz final 0.0 units box
Changing box ...
  triclinic box = (0 0 0) to (3.2614154 2.7987916 5.1282649) with tilt (-1.6158831 0 0)
  triclinic box = (0 0 0) to (3.2614154 2.8244686 5.1282649) with tilt (-1.6158831 0 0)
  triclinic box = (0 0 0) to (3.2614154 2.8244686 5.1753132) with tilt (-1.6158831 0 0)
  triclinic box = (0 0 0) to (3.2614154 2.8244686 5.1753132) with tilt (-1.6307077 0 0)
  triclinic box = (0 0 0) to (3.2614154 2.8244686 5.1753132) with tilt (-1.6307077 0 0)
  triclinic box = (0 0 0) to (3.2614154 2.8244686 5.1753132) with tilt (-1.6307077 0 0)
echo none
run 0
WARNING: No fixes with time integration, atoms won't move (src/src/verlet.cpp:60)
Per MPI rank memory allocation (min/avg/max) = 3.257 | 3.257 | 3.257 Mbytes
    PotEng          Pxx           E_mol          E_coul    
-8.8731976     -204198.43      0              0            
Loop time of 1.125e-06 on 1 procs for 0 steps with 2 atoms

0.0% CPU use with 1 MPI tasks x no OpenMP threads

MPI task timing breakdown:
Section |  min time  |  avg time  |  max time  |%varavg| %total
---------------------------------------------------------------
Pair    | 0          | 0          | 0          |   0.0 |  0.00
Neigh   | 0          | 0          | 0          |   0.0 |  0.00
Comm    | 0          | 0          | 0          |   0.0 |  0.00
Output  | 0          | 0          | 0          |   0.0 |  0.00
Modify  | 0          | 0          | 0          |   0.0 |  0.00
Other   |            | 1.125e-06  |            |       |100.00

Nlocal:              2 ave           2 max           2 min
Histogram: 1 0 0 0 0 0 0 0 0 0
Nghost:            499 ave         499 max         499 min
Histogram: 1 0 0 0 0 0 0 0 0 0
Neighs:            104 ave         104 max         104 min
Histogram: 1 0 0 0 0 0 0 0 0 0

Total # of neighbors = 104
Ave neighs/atom = 52
Neighbor list builds = 0
Dangerous builds = 0
set atom * x 0.0 y 0.0 z 0.0
Setting atom values ...
  2 settings made for x
  2 settings made for y
  2 settings made for z
change_box all     x final 0 8.894769249460925 y final 0 7.703096130833808 z final 0 14.114490542218618      xy final -4.4473846247304625 xz final 0.0 yz final 0.0 units box
Changing box ...
  triclinic box = (0 0 0) to (8.8947692 2.8244686 5.1753132) with tilt (-1.6307077 0 0)
  triclinic box = (0 0 0) to (8.8947692 7.7030961 5.1753132) with tilt (-1.6307077 0 0)
  triclinic box = (0 0 0) to (8.8947692 7.7030961 14.114491) with tilt (-1.6307077 0 0)
  triclinic box = (0 0 0) to (8.8947692 7.7030961 14.114491) with tilt (-4.4473846 0 0)
  triclinic box = (0 0 0) to (8.8947692 7.7030961 14.114491) with tilt (-4.4473846 0 0)
  triclinic box = (0 0 0) to (8.8947692 7.7030961 14.114491) with tilt (-4.4473846 0 0)
echo none
Created 52 atoms
  using lattice units in triclinic box = (0 0 0) to (8.8947692 7.7030961 14.114491) with tilt (-4.4473846 0 0)
  create_atoms CPU = 0.000 seconds
Setting atom values ...
  1 settings made for type
Setting atom values ...
  1 settings made for type
Setting atom values ...
  1 settings made for type
Setting atom values ...
  1 settings made for type
Setting atom values ...
  1 settings made for type
Setting atom values ...
  1 settings made for type
Setting atom values ...
  1 settings made for type
Setting atom values ...
  1 settings made for type
Setting atom values ...
  1 settings made for type
Setting atom values ...
  1 settings made for type
Setting atom values ...
  1 settings made for type
Setting atom values ...
  1 settings made for type
Setting atom values ...
  1 settings made for type
Setting atom values ...
  1 settings made for type
Setting atom values ...
  1 settings made for type
Setting atom values ...
  1 settings made for type
Setting atom values ...
  1 settings made for type
Setting atom values ...
  1 settings made for type
Setting atom values ...
  1 settings made for type
Setting atom values ...
  1 settings made for type
Setting atom values ...
  1 settings made for type
Setting atom values ...
  1 settings made for type
Setting atom values ...
  1 settings made for type
Setting atom values ...
  1 settings made for type
Setting atom values ...
  1 settings made for type
Setting atom values ...
  1 settings made for type
Setting atom values ...
  1 settings made for type
Setting atom values ...
  1 settings made for type
Setting atom values ...
  1 settings made for type
Setting atom values ...
  1 settings made for type
Setting atom values ...
  1 settings made for type
Setting atom values ...
  1 settings made for type
Setting atom values ...
  1 settings made for type
Setting atom values ...
  1 settings made for type
Setting atom values ...
  1 settings made for type
Setting atom values ...
  1 settings made for type
Setting atom values ...
  1 settings made for type
Setting atom values ...
  1 settings made for type
Setting atom values ...
  1 settings made for type
Setting atom values ...
  1 settings made for type
Setting atom values ...
  1 settings made for type
Setting atom values ...
  1 settings made for type
Setting atom values ...
  1 settings made for type
Setting atom values ...
  1 settings made for type
Setting atom values ...
  1 settings made for type
Setting atom values ...
  1 settings made for type
Setting atom values ...
  1 settings made for type
Setting atom values ...
  1 settings made for type
Setting atom values ...
  1 settings made for type
Setting atom values ...
  1 settings made for type
Setting atom values ...
  1 settings made for type
Setting atom values ...
  1 settings made for type
run 0
WARNING: No fixes with time integration, atoms won't move (src/src/verlet.cpp:60)
Per MPI rank memory allocation (min/avg/max) = 3.266 | 3.266 | 3.266 Mbytes
    PotEng          Pxx           E_mol          E_coul    
-262.86135     -8765.6599      0              0            
Loop time of 7.92e-07 on 1 procs for 0 steps with 54 atoms

126.3% CPU use with 1 MPI tasks x no OpenMP threads

MPI task timing breakdown:
Section |  min time  |  avg time  |  max time  |%varavg| %total
---------------------------------------------------------------
Pair    | 0          | 0          | 0          |   0.0 |  0.00
Neigh   | 0          | 0          | 0          |   0.0 |  0.00
Comm    | 0          | 0          | 0          |   0.0 |  0.00
Output  | 0          | 0          | 0          |   0.0 |  0.00
Modify  | 0          | 0          | 0          |   0.0 |  0.00
Other   |            | 7.92e-07   |            |       |100.00

Nlocal:             54 ave          54 max          54 min
Histogram: 1 0 0 0 0 0 0 0 0 0
Nghost:           1246 ave        1246 max        1246 min
Histogram: 1 0 0 0 0 0 0 0 0 0
Neighs:           3942 ave        3942 max        3942 min
Histogram: 1 0 0 0 0 0 0 0 0 0

Total # of neighbors = 3942
Ave neighs/atom = 73
Neighbor list builds = 0
Dangerous builds = 0
set atom * x 0.0 y 0.0 z 0.0
Setting atom values ...
  54 settings made for x
  54 settings made for y
  54 settings made for z
change_box all     x final 0 8.716873864471706 y final 0 7.703096130833808 z final 0 14.114490542218618      xy final -4.358436932235853 xz final 0.0 yz final 0.0 units box
Changing box ...
WARNING: Triclinic box skew is large (src/src/domain.cpp:224)
  triclinic box = (0 0 0) to (8.7168739 7.7030961 14.114491) with tilt (-4.4473846 0 0)
WARNING: Triclinic box skew is large (src/src/domain.cpp:224)
  triclinic box = (0 0 0) to (8.7168739 7.7030961 14.114491) with tilt (-4.4473846 0 0)
WARNING: Triclinic box skew is large (src/src/domain.cpp:224)
  triclinic box = (0 0 0) to (8.7168739 7.7030961 14.114491) with tilt (-4.4473846 0 0)
  triclinic box = (0 0 0) to (8.7168739 7.7030961 14.114491) with tilt (-4.3584369 0 0)
  triclinic box = (0 0 0) to (8.7168739 7.7030961 14.114491) with tilt (-4.3584369 0 0)
  triclinic box = (0 0 0) to (8.7168739 7.7030961 14.114491) with tilt (-4.3584369 0 0)
echo none
run 0
WARNING: No fixes with time integration, atoms won't move (src/src/verlet.cpp:60)
Per MPI rank memory allocation (min/avg/max) = 3.266 | 3.266 | 3.266 Mbytes
    PotEng          Pxx           E_mol          E_coul    
-262.77915      24480.274      0              0            
Loop time of 7.5e-07 on 1 procs for 0 steps with 54 atoms

266.7% CPU use with 1 MPI tasks x no OpenMP threads

MPI task timing breakdown:
Section |  min time  |  avg time  |  max time  |%varavg| %total
---------------------------------------------------------------
Pair    | 0          | 0          | 0          |   0.0 |  0.00
Neigh   | 0          | 0          | 0          |   0.0 |  0.00
Comm    | 0          | 0          | 0          |   0.0 |  0.00
Output  | 0          | 0          | 0          |   0.0 |  0.00
Modify  | 0          | 0          | 0          |   0.0 |  0.00
Other   |            | 7.5e-07    |            |       |100.00

Nlocal:             54 ave          54 max          54 min
Histogram: 1 0 0 0 0 0 0 0 0 0
Nghost:           1246 ave        1246 max        1246 min
Histogram: 1 0 0 0 0 0 0 0 0 0
Neighs:           3942 ave        3942 max        3942 min
Histogram: 1 0 0 0 0 0 0 0 0 0

Total # of neighbors = 3942
Ave neighs/atom = 73
Neighbor list builds = 0
Dangerous builds = 0
set atom * x 0.0 y 0.0 z 0.0
Setting atom values ...
  54 settings made for x
  54 settings made for y
  54 settings made for z
change_box all     x final 0 8.805821556966315 y final 0 7.703096130833808 z final 0 14.114490542218618      xy final -4.402910778483157 xz final 0.0 yz final 0.0 units box
Changing box ...
  triclinic box = (0 0 0) to (8.8058216 7.7030961 14.114491) with tilt (-4.3584369 0 0)
  triclinic box = (0 0 0) to (8.8058216 7.7030961 14.114491) with tilt (-4.3584369 0 0)
  triclinic box = (0 0 0) to (8.8058216 7.7030961 14.114491) with tilt (-4.3584369 0 0)
  triclinic box = (0 0 0) to (8.8058216 7.7030961 14.114491) with tilt (-4.4029108 0 0)
  triclinic box = (0 0 0) to (8.8058216 7.7030961 14.114491) with tilt (-4.4029108 0 0)
  triclinic box = (0 0 0) to (8.8058216 7.7030961 14.114491) with tilt (-4.4029108 0 0)
echo none
run 0
WARNING: No fixes with time integration, atoms won't move (src/src/verlet.cpp:60)
Per MPI rank memory allocation (min/avg/max) = 3.266 | 3.266 | 3.266 Mbytes
    PotEng          Pxx           E_mol          E_coul    
-262.87017      6902.6802      0              0            
Loop time of 8.33e-07 on 1 procs for 0 steps with 54 atoms

360.1% CPU use with 1 MPI tasks x no OpenMP threads

MPI task timing breakdown:
Section |  min time  |  avg time  |  max time  |%varavg| %total
---------------------------------------------------------------
Pair    | 0          | 0          | 0          |   0.0 |  0.00
Neigh   | 0          | 0          | 0          |   0.0 |  0.00
Comm    | 0          | 0          | 0          |   0.0 |  0.00
Output  | 0          | 0          | 0          |   0.0 |  0.00
Modify  | 0          | 0          | 0          |   0.0 |  0.00
Other   |            | 8.33e-07   |            |       |100.00

Nlocal:             54 ave          54 max          54 min
Histogram: 1 0 0 0 0 0 0 0 0 0
Nghost:           1246 ave        1246 max        1246 min
Histogram: 1 0 0 0 0 0 0 0 0 0
Neighs:           3942 ave        3942 max        3942 min
Histogram: 1 0 0 0 0 0 0 0 0 0

Total # of neighbors = 3942
Ave neighs/atom = 73
Neighbor list builds = 0
Dangerous builds = 0
set atom * x 0.0 y 0.0 z 0.0
Setting atom values ...
  54 settings made for x
  54 settings made for y
  54 settings made for z
change_box all     x final 0 8.894769249460925 y final 0 7.703096130833808 z final 0 14.114490542218618      xy final -4.4473846247304625 xz final 0.0 yz final 0.0 units box
Changing box ...
  triclinic box = (0 0 0) to (8.8947692 7.7030961 14.114491) with tilt (-4.4029108 0 0)
  triclinic box = (0 0 0) to (8.8947692 7.7030961 14.114491) with tilt (-4.4029108 0 0)
  triclinic box = (0 0 0) to (8.8947692 7.7030961 14.114491) with tilt (-4.4029108 0 0)
  triclinic box = (0 0 0) to (8.8947692 7.7030961 14.114491) with tilt (-4.4473846 0 0)
  triclinic box = (0 0 0) to (8.8947692 7.7030961 14.114491) with tilt (-4.4473846 0 0)
  triclinic box = (0 0 0) to (8.8947692 7.7030961 14.114491) with tilt (-4.4473846 0 0)
echo none
run 0
WARNING: No fixes with time integration, atoms won't move (src/src/verlet.cpp:60)
Per MPI rank memory allocation (min/avg/max) = 3.266 | 3.266 | 3.266 Mbytes
    PotEng          Pxx           E_mol          E_coul    
-262.86135     -8765.6599      0              0            
Loop time of 6.67e-07 on 1 procs for 0 steps with 54 atoms

149.9% CPU use with 1 MPI tasks x no OpenMP threads

MPI task timing breakdown:
Section |  min time  |  avg time  |  max time  |%varavg| %total
---------------------------------------------------------------
Pair    | 0          | 0          | 0          |   0.0 |  0.00
Neigh   | 0          | 0          | 0          |   0.0 |  0.00
Comm    | 0          | 0          | 0          |   0.0 |  0.00
Output  | 0          | 0          | 0          |   0.0 |  0.00
Modify  | 0          | 0          | 0          |   0.0 |  0.00
Other   |            | 6.67e-07   |            |       |100.00

Nlocal:             54 ave          54 max          54 min
Histogram: 1 0 0 0 0 0 0 0 0 0
Nghost:           1246 ave        1246 max        1246 min
Histogram: 1 0 0 0 0 0 0 0 0 0
Neighs:           3942 ave        3942 max        3942 min
Histogram: 1 0 0 0 0 0 0 0 0 0

Total # of neighbors = 3942
Ave neighs/atom = 73
Neighbor list builds = 0
Dangerous builds = 0
set atom * x 0.0 y 0.0 z 0.0
Setting atom values ...
  54 settings made for x
  54 settings made for y
  54 settings made for z
change_box all     x final 0 8.983716941955535 y final 0 7.703096130833808 z final 0 14.114490542218618      xy final -4.491858470977768 xz final 0.0 yz final 0.0 units box
Changing box ...
  triclinic box = (0 0 0) to (8.9837169 7.7030961 14.114491) with tilt (-4.4473846 0 0)
  triclinic box = (0 0 0) to (8.9837169 7.7030961 14.114491) with tilt (-4.4473846 0 0)
  triclinic box = (0 0 0) to (8.9837169 7.7030961 14.114491) with tilt (-4.4473846 0 0)
  triclinic box = (0 0 0) to (8.9837169 7.7030961 14.114491) with tilt (-4.4918585 0 0)
  triclinic box = (0 0 0) to (8.9837169 7.7030961 14.114491) with tilt (-4.4918585 0 0)
  triclinic box = (0 0 0) to (8.9837169 7.7030961 14.114491) with tilt (-4.4918585 0 0)
echo none
run 0
WARNING: No fixes with time integration, atoms won't move (src/src/verlet.cpp:60)
Per MPI rank memory allocation (min/avg/max) = 3.266 | 3.266 | 3.266 Mbytes
    PotEng          Pxx           E_mol          E_coul    
-262.76465     -23038.829      0              0            
Loop time of 7.5e-07 on 1 procs for 0 steps with 54 atoms

133.3% CPU use with 1 MPI tasks x no OpenMP threads

MPI task timing breakdown:
Section |  min time  |  avg time  |  max time  |%varavg| %total
---------------------------------------------------------------
Pair    | 0          | 0          | 0          |   0.0 |  0.00
Neigh   | 0          | 0          | 0          |   0.0 |  0.00
Comm    | 0          | 0          | 0          |   0.0 |  0.00
Output  | 0          | 0          | 0          |   0.0 |  0.00
Modify  | 0          | 0          | 0          |   0.0 |  0.00
Other   |            | 7.5e-07    |            |       |100.00

Nlocal:             54 ave          54 max          54 min
Histogram: 1 0 0 0 0 0 0 0 0 0
Nghost:           1176 ave        1176 max        1176 min
Histogram: 1 0 0 0 0 0 0 0 0 0
Neighs:           3942 ave        3942 max        3942 min
Histogram: 1 0 0 0 0 0 0 0 0 0

Total # of neighbors = 3942
Ave neighs/atom = 73
Neighbor list builds = 0
Dangerous builds = 0
set atom * x 0.0 y 0.0 z 0.0
Setting atom values ...
  54 settings made for x
  54 settings made for y
  54 settings made for z
change_box all     x final 0 9.072664634450144 y final 0 7.703096130833808 z final 0 14.114490542218618      xy final -4.536332317225072 xz final 0.0 yz final 0.0 units box
Changing box ...
  triclinic box = (0 0 0) to (9.0726646 7.7030961 14.114491) with tilt (-4.4918585 0 0)
  triclinic box = (0 0 0) to (9.0726646 7.7030961 14.114491) with tilt (-4.4918585 0 0)
  triclinic box = (0 0 0) to (9.0726646 7.7030961 14.114491) with tilt (-4.4918585 0 0)
  triclinic box = (0 0 0) to (9.0726646 7.7030961 14.114491) with tilt (-4.5363323 0 0)
  triclinic box = (0 0 0) to (9.0726646 7.7030961 14.114491) with tilt (-4.5363323 0 0)
  triclinic box = (0 0 0) to (9.0726646 7.7030961 14.114491) with tilt (-4.5363323 0 0)
echo none
run 0
WARNING: No fixes with time integration, atoms won't move (src/src/verlet.cpp:60)
Per MPI rank memory allocation (min/avg/max) = 3.266 | 3.266 | 3.266 Mbytes
    PotEng          Pxx           E_mol          E_coul    
-262.58574     -36055.981      0              0            
Loop time of 8.75e-07 on 1 procs for 0 steps with 54 atoms

228.6% CPU use with 1 MPI tasks x no OpenMP threads

MPI task timing breakdown:
Section |  min time  |  avg time  |  max time  |%varavg| %total
---------------------------------------------------------------
Pair    | 0          | 0          | 0          |   0.0 |  0.00
Neigh   | 0          | 0          | 0          |   0.0 |  0.00
Comm    | 0          | 0          | 0          |   0.0 |  0.00
Output  | 0          | 0          | 0          |   0.0 |  0.00
Modify  | 0          | 0          | 0          |   0.0 |  0.00
Other   |            | 8.75e-07   |            |       |100.00

Nlocal:             54 ave          54 max          54 min
Histogram: 1 0 0 0 0 0 0 0 0 0
Nghost:           1176 ave        1176 max        1176 min
Histogram: 1 0 0 0 0 0 0 0 0 0
Neighs:           3942 ave        3942 max        3942 min
Histogram: 1 0 0 0 0 0 0 0 0 0

Total # of neighbors = 3942
Ave neighs/atom = 73
Neighbor list builds = 0
Dangerous builds = 0
set atom * x 0.0 y 0.0 z 0.0
Setting atom values ...
  54 settings made for x
  54 settings made for y
  54 settings made for z
change_box all     x final 0 8.894769249460925 y final 0 7.703096130833808 z final 0 13.832200731374245      xy final -4.4473846247304625 xz final 0.0 yz final 0.0 units box
Changing box ...
WARNING: Triclinic box skew is large (src/src/domain.cpp:224)
  triclinic box = (0 0 0) to (8.8947692 7.7030961 14.114491) with tilt (-4.5363323 0 0)
WARNING: Triclinic box skew is large (src/src/domain.cpp:224)
  triclinic box = (0 0 0) to (8.8947692 7.7030961 14.114491) with tilt (-4.5363323 0 0)
WARNING: Triclinic box skew is large (src/src/domain.cpp:224)
  triclinic box = (0 0 0) to (8.8947692 7.7030961 13.832201) with tilt (-4.5363323 0 0)
  triclinic box = (0 0 0) to (8.8947692 7.7030961 13.832201) with tilt (-4.4473846 0 0)
  triclinic box = (0 0 0) to (8.8947692 7.7030961 13.832201) with tilt (-4.4473846 0 0)
  triclinic box = (0 0 0) to (8.8947692 7.7030961 13.832201) with tilt (-4.4473846 0 0)
echo none
run 0
WARNING: No fixes with time integration, atoms won't move (src/src/verlet.cpp:60)
Per MPI rank memory allocation (min/avg/max) = 3.266 | 3.266 | 3.266 Mbytes
    PotEng          Pxx           E_mol          E_coul    
-262.38876      6832.2032      0              0            
Loop time of 1e-06 on 1 procs for 0 steps with 54 atoms

200.0% CPU use with 1 MPI tasks x no OpenMP threads

MPI task timing breakdown:
Section |  min time  |  avg time  |  max time  |%varavg| %total
---------------------------------------------------------------
Pair    | 0          | 0          | 0          |   0.0 |  0.00
Neigh   | 0          | 0          | 0          |   0.0 |  0.00
Comm    | 0          | 0          | 0          |   0.0 |  0.00
Output  | 0          | 0          | 0          |   0.0 |  0.00
Modify  | 0          | 0          | 0          |   0.0 |  0.00
Other   |            | 1e-06      |            |       |100.00

Nlocal:             54 ave          54 max          54 min
Histogram: 1 0 0 0 0 0 0 0 0 0
Nghost:           1246 ave        1246 max        1246 min
Histogram: 1 0 0 0 0 0 0 0 0 0
Neighs:           3942 ave        3942 max        3942 min
Histogram: 1 0 0 0 0 0 0 0 0 0

Total # of neighbors = 3942
Ave neighs/atom = 73
Neighbor list builds = 0
Dangerous builds = 0
set atom * x 0.0 y 0.0 z 0.0
Setting atom values ...
  54 settings made for x
  54 settings made for y
  54 settings made for z
change_box all     x final 0 8.894769249460925 y final 0 7.703096130833808 z final 0 13.973345636796433      xy final -4.4473846247304625 xz final 0.0 yz final 0.0 units box
Changing box ...
  triclinic box = (0 0 0) to (8.8947692 7.7030961 13.832201) with tilt (-4.4473846 0 0)
  triclinic box = (0 0 0) to (8.8947692 7.7030961 13.832201) with tilt (-4.4473846 0 0)
  triclinic box = (0 0 0) to (8.8947692 7.7030961 13.973346) with tilt (-4.4473846 0 0)
  triclinic box = (0 0 0) to (8.8947692 7.7030961 13.973346) with tilt (-4.4473846 0 0)
  triclinic box = (0 0 0) to (8.8947692 7.7030961 13.973346) with tilt (-4.4473846 0 0)
  triclinic box = (0 0 0) to (8.8947692 7.7030961 13.973346) with tilt (-4.4473846 0 0)
echo none
run 0
WARNING: No fixes with time integration, atoms won't move (src/src/verlet.cpp:60)
Per MPI rank memory allocation (min/avg/max) = 3.266 | 3.266 | 3.266 Mbytes
    PotEng          Pxx           E_mol          E_coul    
-262.69193     -1231.6915      0              0            
Loop time of 2.7208e-05 on 1 procs for 0 steps with 54 atoms

11.0% CPU use with 1 MPI tasks x no OpenMP threads

MPI task timing breakdown:
Section |  min time  |  avg time  |  max time  |%varavg| %total
---------------------------------------------------------------
Pair    | 0          | 0          | 0          |   0.0 |  0.00
Neigh   | 0          | 0          | 0          |   0.0 |  0.00
Comm    | 0          | 0          | 0          |   0.0 |  0.00
Output  | 0          | 0          | 0          |   0.0 |  0.00
Modify  | 0          | 0          | 0          |   0.0 |  0.00
Other   |            | 2.721e-05  |            |       |100.00

Nlocal:             54 ave          54 max          54 min
Histogram: 1 0 0 0 0 0 0 0 0 0
Nghost:           1246 ave        1246 max        1246 min
Histogram: 1 0 0 0 0 0 0 0 0 0
Neighs:           3942 ave        3942 max        3942 min
Histogram: 1 0 0 0 0 0 0 0 0 0

Total # of neighbors = 3942
Ave neighs/atom = 73
Neighbor list builds = 0
Dangerous builds = 0
set atom * x 0.0 y 0.0 z 0.0
Setting atom values ...
  54 settings made for x
  54 settings made for y
  54 settings made for z
change_box all     x final 0 8.894769249460925 y final 0 7.703096130833808 z final 0 14.114490542218618      xy final -4.4473846247304625 xz final 0.0 yz final 0.0 units box
Changing box ...
  triclinic box = (0 0 0) to (8.8947692 7.7030961 13.973346) with tilt (-4.4473846 0 0)
  triclinic box = (0 0 0) to (8.8947692 7.7030961 13.973346) with tilt (-4.4473846 0 0)
  triclinic box = (0 0 0) to (8.8947692 7.7030961 14.114491) with tilt (-4.4473846 0 0)
  triclinic box = (0 0 0) to (8.8947692 7.7030961 14.114491) with tilt (-4.4473846 0 0)
  triclinic box = (0 0 0) to (8.8947692 7.7030961 14.114491) with tilt (-4.4473846 0 0)
  triclinic box = (0 0 0) to (8.8947692 7.7030961 14.114491) with tilt (-4.4473846 0 0)
echo none
run 0
WARNING: No fixes with time integration, atoms won't move (src/src/verlet.cpp:60)
Per MPI rank memory allocation (min/avg/max) = 3.266 | 3.266 | 3.266 Mbytes
    PotEng          Pxx           E_mol          E_coul    
-262.86135     -8765.6599      0              0            
Loop time of 9.17e-07 on 1 procs for 0 steps with 54 atoms

109.1% CPU use with 1 MPI tasks x no OpenMP threads

MPI task timing breakdown:
Section |  min time  |  avg time  |  max time  |%varavg| %total
---------------------------------------------------------------
Pair    | 0          | 0          | 0          |   0.0 |  0.00
Neigh   | 0          | 0          | 0          |   0.0 |  0.00
Comm    | 0          | 0          | 0          |   0.0 |  0.00
Output  | 0          | 0          | 0          |   0.0 |  0.00
Modify  | 0          | 0          | 0          |   0.0 |  0.00
Other   |            | 9.17e-07   |            |       |100.00

Nlocal:             54 ave          54 max          54 min
Histogram: 1 0 0 0 0 0 0 0 0 0
Nghost:           1246 ave        1246 max        1246 min
Histogram: 1 0 0 0 0 0 0 0 0 0
Neighs:           3942 ave        3942 max        3942 min
Histogram: 1 0 0 0 0 0 0 0 0 0

Total # of neighbors = 3942
Ave neighs/atom = 73
Neighbor list builds = 0
Dangerous builds = 0
set atom * x 0.0 y 0.0 z 0.0
Setting atom values ...
  54 settings made for x
  54 settings made for y
  54 settings made for z
change_box all     x final 0 8.894769249460925 y final 0 7.703096130833808 z final 0 14.255635447640804      xy final -4.4473846247304625 xz final 0.0 yz final 0.0 units box
Changing box ...
  triclinic box = (0 0 0) to (8.8947692 7.7030961 14.114491) with tilt (-4.4473846 0 0)
  triclinic box = (0 0 0) to (8.8947692 7.7030961 14.114491) with tilt (-4.4473846 0 0)
  triclinic box = (0 0 0) to (8.8947692 7.7030961 14.255635) with tilt (-4.4473846 0 0)
  triclinic box = (0 0 0) to (8.8947692 7.7030961 14.255635) with tilt (-4.4473846 0 0)
  triclinic box = (0 0 0) to (8.8947692 7.7030961 14.255635) with tilt (-4.4473846 0 0)
  triclinic box = (0 0 0) to (8.8947692 7.7030961 14.255635) with tilt (-4.4473846 0 0)
echo none
run 0
WARNING: No fixes with time integration, atoms won't move (src/src/verlet.cpp:60)
Per MPI rank memory allocation (min/avg/max) = 3.266 | 3.266 | 3.266 Mbytes
    PotEng          Pxx           E_mol          E_coul    
-262.90446     -15784.727      0              0            
Loop time of 8.75e-07 on 1 procs for 0 steps with 54 atoms

0.0% CPU use with 1 MPI tasks x no OpenMP threads

MPI task timing breakdown:
Section |  min time  |  avg time  |  max time  |%varavg| %total
---------------------------------------------------------------
Pair    | 0          | 0          | 0          |   0.0 |  0.00
Neigh   | 0          | 0          | 0          |   0.0 |  0.00
Comm    | 0          | 0          | 0          |   0.0 |  0.00
Output  | 0          | 0          | 0          |   0.0 |  0.00
Modify  | 0          | 0          | 0          |   0.0 |  0.00
Other   |            | 8.75e-07   |            |       |100.00

Nlocal:             54 ave          54 max          54 min
Histogram: 1 0 0 0 0 0 0 0 0 0
Nghost:           1246 ave        1246 max        1246 min
Histogram: 1 0 0 0 0 0 0 0 0 0
Neighs:           3942 ave        3942 max        3942 min
Histogram: 1 0 0 0 0 0 0 0 0 0

Total # of neighbors = 3942
Ave neighs/atom = 73
Neighbor list builds = 0
Dangerous builds = 0
set atom * x 0.0 y 0.0 z 0.0
Setting atom values ...
  54 settings made for x
  54 settings made for y
  54 settings made for z
change_box all     x final 0 8.894769249460925 y final 0 7.703096130833808 z final 0 14.396780353062992      xy final -4.4473846247304625 xz final 0.0 yz final 0.0 units box
Changing box ...
  triclinic box = (0 0 0) to (8.8947692 7.7030961 14.255635) with tilt (-4.4473846 0 0)
[...]
  triclinic box = (0 0 0) to (10.151019 10.99256 30.922861) with tilt (-10.151019 0 0)
echo none
run 0
Per MPI rank memory allocation (min/avg/max) = 3.328 | 3.328 | 3.328 Mbytes
    PotEng          Pxx           E_mol          E_coul    
-368.29134     -2060.7205      0              0            
Loop time of 9.58e-07 on 1 procs for 0 steps with 80 atoms

208.8% CPU use with 1 MPI tasks x no OpenMP threads

MPI task timing breakdown:
Section |  min time  |  avg time  |  max time  |%varavg| %total
---------------------------------------------------------------
Pair    | 0          | 0          | 0          |   0.0 |  0.00
Neigh   | 0          | 0          | 0          |   0.0 |  0.00
Comm    | 0          | 0          | 0          |   0.0 |  0.00
Output  | 0          | 0          | 0          |   0.0 |  0.00
Modify  | 0          | 0          | 0          |   0.0 |  0.00
Other   |            | 9.58e-07   |            |       |100.00

Nlocal:             80 ave          80 max          80 min
Histogram: 1 0 0 0 0 0 0 0 0 0
Nghost:            593 ave         593 max         593 min
Histogram: 1 0 0 0 0 0 0 0 0 0
Neighs:           4360 ave        4360 max        4360 min
Histogram: 1 0 0 0 0 0 0 0 0 0

Total # of neighbors = 4360
Ave neighs/atom = 54.5
Neighbor list builds = 0
Dangerous builds = 0
set atom * x 0.0 y 0.0 z 0.0
Setting atom values ...
  80 settings made for x
  80 settings made for y
  80 settings made for z
change_box all     x final 0 10.150168873212014 y final 0 10.991639109251986 z final 0 30.92027022836109      xy final -10.150168873212019 xz final 0.0 yz final 0.0 units box
Changing box ...
  triclinic box = (0 0 0) to (10.150169 10.99256 30.922861) with tilt (-10.151019 0 0)
  triclinic box = (0 0 0) to (10.150169 10.991639 30.922861) with tilt (-10.151019 0 0)
  triclinic box = (0 0 0) to (10.150169 10.991639 30.92027) with tilt (-10.151019 0 0)
  triclinic box = (0 0 0) to (10.150169 10.991639 30.92027) with tilt (-10.150169 0 0)
  triclinic box = (0 0 0) to (10.150169 10.991639 30.92027) with tilt (-10.150169 0 0)
  triclinic box = (0 0 0) to (10.150169 10.991639 30.92027) with tilt (-10.150169 0 0)
echo none
run 0
Per MPI rank memory allocation (min/avg/max) = 3.328 | 3.328 | 3.328 Mbytes
    PotEng          Pxx           E_mol          E_coul    
-368.29329     -2006.1183      0              0            
Loop time of 9.17e-07 on 1 procs for 0 steps with 80 atoms

0.0% CPU use with 1 MPI tasks x no OpenMP threads

MPI task timing breakdown:
Section |  min time  |  avg time  |  max time  |%varavg| %total
---------------------------------------------------------------
Pair    | 0          | 0          | 0          |   0.0 |  0.00
Neigh   | 0          | 0          | 0          |   0.0 |  0.00
Comm    | 0          | 0          | 0          |   0.0 |  0.00
Output  | 0          | 0          | 0          |   0.0 |  0.00
Modify  | 0          | 0          | 0          |   0.0 |  0.00
Other   |            | 9.17e-07   |            |       |100.00

Nlocal:             80 ave          80 max          80 min
Histogram: 1 0 0 0 0 0 0 0 0 0
Nghost:            593 ave         593 max         593 min
Histogram: 1 0 0 0 0 0 0 0 0 0
Neighs:           4360 ave        4360 max        4360 min
Histogram: 1 0 0 0 0 0 0 0 0 0

Total # of neighbors = 4360
Ave neighs/atom = 54.5
Neighbor list builds = 0
Dangerous builds = 0
set atom * x 0.0 y 0.0 z 0.0
Setting atom values ...
  80 settings made for x
  80 settings made for y
  80 settings made for z
change_box all     x final 0 10.150168873212014 y final 0 10.991639109251986 z final 0 30.920270228361087      xy final -10.150168873212019 xz final 0.0 yz final 0.0 units box
Changing box ...
  triclinic box = (0 0 0) to (10.150169 10.991639 30.92027) with tilt (-10.150169 0 0)
  triclinic box = (0 0 0) to (10.150169 10.991639 30.92027) with tilt (-10.150169 0 0)
  triclinic box = (0 0 0) to (10.150169 10.991639 30.92027) with tilt (-10.150169 0 0)
  triclinic box = (0 0 0) to (10.150169 10.991639 30.92027) with tilt (-10.150169 0 0)
  triclinic box = (0 0 0) to (10.150169 10.991639 30.92027) with tilt (-10.150169 0 0)
  triclinic box = (0 0 0) to (10.150169 10.991639 30.92027) with tilt (-10.150169 0 0)
echo none
run 0
Per MPI rank memory allocation (min/avg/max) = 3.328 | 3.328 | 3.328 Mbytes
    PotEng          Pxx           E_mol          E_coul    
-368.29329     -2006.1183      0              0            
Loop time of 8.33e-07 on 1 procs for 0 steps with 80 atoms

240.1% CPU use with 1 MPI tasks x no OpenMP threads

MPI task timing breakdown:
Section |  min time  |  avg time  |  max time  |%varavg| %total
---------------------------------------------------------------
Pair    | 0          | 0          | 0          |   0.0 |  0.00
Neigh   | 0          | 0          | 0          |   0.0 |  0.00
Comm    | 0          | 0          | 0          |   0.0 |  0.00
Output  | 0          | 0          | 0          |   0.0 |  0.00
Modify  | 0          | 0          | 0          |   0.0 |  0.00
Other   |            | 8.33e-07   |            |       |100.00

Nlocal:             80 ave          80 max          80 min
Histogram: 1 0 0 0 0 0 0 0 0 0
Nghost:            593 ave         593 max         593 min
Histogram: 1 0 0 0 0 0 0 0 0 0
Neighs:           4360 ave        4360 max        4360 min
Histogram: 1 0 0 0 0 0 0 0 0 0

Total # of neighbors = 4360
Ave neighs/atom = 54.5
Neighbor list builds = 0
Dangerous builds = 0
set atom * x 0.0 y 0.0 z 0.0
Setting atom values ...
  80 settings made for x
  80 settings made for y
  80 settings made for z
change_box all     x final 0 10.149839286828064 y final 0 10.991282199467237 z final 0 30.9192662155035      xy final -10.149839286828069 xz final 0.0 yz final 0.0 units box
Changing box ...
  triclinic box = (0 0 0) to (10.149839 10.991639 30.92027) with tilt (-10.150169 0 0)
  triclinic box = (0 0 0) to (10.149839 10.991282 30.92027) with tilt (-10.150169 0 0)
  triclinic box = (0 0 0) to (10.149839 10.991282 30.919266) with tilt (-10.150169 0 0)
  triclinic box = (0 0 0) to (10.149839 10.991282 30.919266) with tilt (-10.149839 0 0)
  triclinic box = (0 0 0) to (10.149839 10.991282 30.919266) with tilt (-10.149839 0 0)
  triclinic box = (0 0 0) to (10.149839 10.991282 30.919266) with tilt (-10.149839 0 0)
echo none
run 0
Per MPI rank memory allocation (min/avg/max) = 3.328 | 3.328 | 3.328 Mbytes
    PotEng          Pxx           E_mol          E_coul    
-368.29362     -2010.9835      0              0            
Loop time of 1e-06 on 1 procs for 0 steps with 80 atoms

100.0% CPU use with 1 MPI tasks x no OpenMP threads

MPI task timing breakdown:
Section |  min time  |  avg time  |  max time  |%varavg| %total
---------------------------------------------------------------
Pair    | 0          | 0          | 0          |   0.0 |  0.00
Neigh   | 0          | 0          | 0          |   0.0 |  0.00
Comm    | 0          | 0          | 0          |   0.0 |  0.00
Output  | 0          | 0          | 0          |   0.0 |  0.00
Modify  | 0          | 0          | 0          |   0.0 |  0.00
Other   |            | 1e-06      |            |       |100.00

Nlocal:             80 ave          80 max          80 min
Histogram: 1 0 0 0 0 0 0 0 0 0
Nghost:            593 ave         593 max         593 min
Histogram: 1 0 0 0 0 0 0 0 0 0
Neighs:           4360 ave        4360 max        4360 min
Histogram: 1 0 0 0 0 0 0 0 0 0

Total # of neighbors = 4360
Ave neighs/atom = 54.5
Neighbor list builds = 0
Dangerous builds = 0
set atom * x 0.0 y 0.0 z 0.0
Setting atom values ...
  80 settings made for x
  80 settings made for y
  80 settings made for z
change_box all     x final 0 10.149839286828064 y final 0 10.991282199467237 z final 0 30.919266215503498      xy final -10.149839286828069 xz final 0.0 yz final 0.0 units box
Changing box ...
  triclinic box = (0 0 0) to (10.149839 10.991282 30.919266) with tilt (-10.149839 0 0)
  triclinic box = (0 0 0) to (10.149839 10.991282 30.919266) with tilt (-10.149839 0 0)
  triclinic box = (0 0 0) to (10.149839 10.991282 30.919266) with tilt (-10.149839 0 0)
  triclinic box = (0 0 0) to (10.149839 10.991282 30.919266) with tilt (-10.149839 0 0)
  triclinic box = (0 0 0) to (10.149839 10.991282 30.919266) with tilt (-10.149839 0 0)
  triclinic box = (0 0 0) to (10.149839 10.991282 30.919266) with tilt (-10.149839 0 0)
echo none
run 0
Per MPI rank memory allocation (min/avg/max) = 3.328 | 3.328 | 3.328 Mbytes
    PotEng          Pxx           E_mol          E_coul    
-368.29362     -2010.9835      0              0            
Loop time of 1.125e-06 on 1 procs for 0 steps with 80 atoms

177.8% CPU use with 1 MPI tasks x no OpenMP threads

MPI task timing breakdown:
Section |  min time  |  avg time  |  max time  |%varavg| %total
---------------------------------------------------------------
Pair    | 0          | 0          | 0          |   0.0 |  0.00
Neigh   | 0          | 0          | 0          |   0.0 |  0.00
Comm    | 0          | 0          | 0          |   0.0 |  0.00
Output  | 0          | 0          | 0          |   0.0 |  0.00
Modify  | 0          | 0          | 0          |   0.0 |  0.00
Other   |            | 1.125e-06  |            |       |100.00

Nlocal:             80 ave          80 max          80 min
Histogram: 1 0 0 0 0 0 0 0 0 0
Nghost:            593 ave         593 max         593 min
Histogram: 1 0 0 0 0 0 0 0 0 0
Neighs:           4360 ave        4360 max        4360 min
Histogram: 1 0 0 0 0 0 0 0 0 0

Total # of neighbors = 4360
Ave neighs/atom = 54.5
Neighbor list builds = 0
Dangerous builds = 0
set atom * x 0.0 y 0.0 z 0.0
Setting atom values ...
  80 settings made for x
  80 settings made for y
  80 settings made for z
change_box all     x final 0 10.150002942795325 y final 0 10.991459422856591 z final 0 30.919764757625842      xy final -10.15000294279533 xz final 0.0 yz final 0.0 units box
Changing box ...
  triclinic box = (0 0 0) to (10.150003 10.991282 30.919266) with tilt (-10.149839 0 0)
  triclinic box = (0 0 0) to (10.150003 10.991459 30.919266) with tilt (-10.149839 0 0)
  triclinic box = (0 0 0) to (10.150003 10.991459 30.919765) with tilt (-10.149839 0 0)
  triclinic box = (0 0 0) to (10.150003 10.991459 30.919765) with tilt (-10.150003 0 0)
  triclinic box = (0 0 0) to (10.150003 10.991459 30.919765) with tilt (-10.150003 0 0)
  triclinic box = (0 0 0) to (10.150003 10.991459 30.919765) with tilt (-10.150003 0 0)
echo none
run 0
Per MPI rank memory allocation (min/avg/max) = 3.328 | 3.328 | 3.328 Mbytes
    PotEng          Pxx           E_mol          E_coul    
-368.29381     -2038.6775      0              0            
Loop time of 7.91e-07 on 1 procs for 0 steps with 80 atoms

126.4% CPU use with 1 MPI tasks x no OpenMP threads

MPI task timing breakdown:
Section |  min time  |  avg time  |  max time  |%varavg| %total
---------------------------------------------------------------
Pair    | 0          | 0          | 0          |   0.0 |  0.00
Neigh   | 0          | 0          | 0          |   0.0 |  0.00
Comm    | 0          | 0          | 0          |   0.0 |  0.00
Output  | 0          | 0          | 0          |   0.0 |  0.00
Modify  | 0          | 0          | 0          |   0.0 |  0.00
Other   |            | 7.91e-07   |            |       |100.00

Nlocal:             80 ave          80 max          80 min
Histogram: 1 0 0 0 0 0 0 0 0 0
Nghost:            593 ave         593 max         593 min
Histogram: 1 0 0 0 0 0 0 0 0 0
Neighs:           4360 ave        4360 max        4360 min
Histogram: 1 0 0 0 0 0 0 0 0 0

Total # of neighbors = 4360
Ave neighs/atom = 54.5
Neighbor list builds = 0
Dangerous builds = 0
set atom * x 0.0 y 0.0 z 0.0
Setting atom values ...
  80 settings made for x
  80 settings made for y
  80 settings made for z
change_box all     x final 0 10.1503721580107 y final 0 10.991859246785802 z final 0 30.920889491053867      xy final -10.150372158010706 xz final 0.0 yz final 0.0 units box
Changing box ...
  triclinic box = (0 0 0) to (10.150372 10.991459 30.919765) with tilt (-10.150003 0 0)
  triclinic box = (0 0 0) to (10.150372 10.991859 30.919765) with tilt (-10.150003 0 0)
  triclinic box = (0 0 0) to (10.150372 10.991859 30.920889) with tilt (-10.150003 0 0)
  triclinic box = (0 0 0) to (10.150372 10.991859 30.920889) with tilt (-10.150372 0 0)
  triclinic box = (0 0 0) to (10.150372 10.991859 30.920889) with tilt (-10.150372 0 0)
  triclinic box = (0 0 0) to (10.150372 10.991859 30.920889) with tilt (-10.150372 0 0)
echo none
run 0
Per MPI rank memory allocation (min/avg/max) = 3.328 | 3.328 | 3.328 Mbytes
    PotEng          Pxx           E_mol          E_coul    
-368.29399     -2101.0212      0              0            
Loop time of 9.58e-07 on 1 procs for 0 steps with 80 atoms

104.4% CPU use with 1 MPI tasks x no OpenMP threads

MPI task timing breakdown:
Section |  min time  |  avg time  |  max time  |%varavg| %total
---------------------------------------------------------------
Pair    | 0          | 0          | 0          |   0.0 |  0.00
Neigh   | 0          | 0          | 0          |   0.0 |  0.00
Comm    | 0          | 0          | 0          |   0.0 |  0.00
Output  | 0          | 0          | 0          |   0.0 |  0.00
Modify  | 0          | 0          | 0          |   0.0 |  0.00
Other   |            | 9.58e-07   |            |       |100.00

Nlocal:             80 ave          80 max          80 min
Histogram: 1 0 0 0 0 0 0 0 0 0
Nghost:            593 ave         593 max         593 min
Histogram: 1 0 0 0 0 0 0 0 0 0
Neighs:           4360 ave        4360 max        4360 min
Histogram: 1 0 0 0 0 0 0 0 0 0

Total # of neighbors = 4360
Ave neighs/atom = 54.5
Neighbor list builds = 0
Dangerous builds = 0
set atom * x 0.0 y 0.0 z 0.0
Setting atom values ...
  80 settings made for x
  80 settings made for y
  80 settings made for z
change_box all     x final 0 10.1503721580107 y final 0 10.991859246785802 z final 0 30.920889491053863      xy final -10.150372158010706 xz final 0.0 yz final 0.0 units box
Changing box ...
  triclinic box = (0 0 0) to (10.150372 10.991859 30.920889) with tilt (-10.150372 0 0)
  triclinic box = (0 0 0) to (10.150372 10.991859 30.920889) with tilt (-10.150372 0 0)
  triclinic box = (0 0 0) to (10.150372 10.991859 30.920889) with tilt (-10.150372 0 0)
  triclinic box = (0 0 0) to (10.150372 10.991859 30.920889) with tilt (-10.150372 0 0)
  triclinic box = (0 0 0) to (10.150372 10.991859 30.920889) with tilt (-10.150372 0 0)
  triclinic box = (0 0 0) to (10.150372 10.991859 30.920889) with tilt (-10.150372 0 0)
echo none
run 0
Per MPI rank memory allocation (min/avg/max) = 3.328 | 3.328 | 3.328 Mbytes
    PotEng          Pxx           E_mol          E_coul    
-368.29399     -2101.0212      0              0            
Loop time of 1.292e-06 on 1 procs for 0 steps with 80 atoms

232.2% CPU use with 1 MPI tasks x no OpenMP threads

MPI task timing breakdown:
Section |  min time  |  avg time  |  max time  |%varavg| %total
---------------------------------------------------------------
Pair    | 0          | 0          | 0          |   0.0 |  0.00
Neigh   | 0          | 0          | 0          |   0.0 |  0.00
Comm    | 0          | 0          | 0          |   0.0 |  0.00
Output  | 0          | 0          | 0          |   0.0 |  0.00
Modify  | 0          | 0          | 0          |   0.0 |  0.00
Other   |            | 1.292e-06  |            |       |100.00

Nlocal:             80 ave          80 max          80 min
Histogram: 1 0 0 0 0 0 0 0 0 0
Nghost:            593 ave         593 max         593 min
Histogram: 1 0 0 0 0 0 0 0 0 0
Neighs:           4360 ave        4360 max        4360 min
Histogram: 1 0 0 0 0 0 0 0 0 0

Total # of neighbors = 4360
Ave neighs/atom = 54.5
Neighbor list builds = 0
Dangerous builds = 0
set atom * x 0.0 y 0.0 z 0.0
Setting atom values ...
  80 settings made for x
  80 settings made for y
  80 settings made for z
change_box all     x final 0 10.150758794127558 y final 0 10.992277935845678 z final 0 30.922067293449334      xy final -10.150758794127563 xz final 0.0 yz final 0.0 units box
Changing box ...
  triclinic box = (0 0 0) to (10.150759 10.991859 30.920889) with tilt (-10.150372 0 0)
  triclinic box = (0 0 0) to (10.150759 10.992278 30.920889) with tilt (-10.150372 0 0)
  triclinic box = (0 0 0) to (10.150759 10.992278 30.922067) with tilt (-10.150372 0 0)
  triclinic box = (0 0 0) to (10.150759 10.992278 30.922067) with tilt (-10.150759 0 0)
  triclinic box = (0 0 0) to (10.150759 10.992278 30.922067) with tilt (-10.150759 0 0)
  triclinic box = (0 0 0) to (10.150759 10.992278 30.922067) with tilt (-10.150759 0 0)
echo none
run 0
Per MPI rank memory allocation (min/avg/max) = 3.328 | 3.328 | 3.328 Mbytes
    PotEng          Pxx           E_mol          E_coul    
-368.2942      -2124.9055      0              0            
Loop time of 1.083e-06 on 1 procs for 0 steps with 80 atoms

184.7% CPU use with 1 MPI tasks x no OpenMP threads

MPI task timing breakdown:
Section |  min time  |  avg time  |  max time  |%varavg| %total
---------------------------------------------------------------
Pair    | 0          | 0          | 0          |   0.0 |  0.00
Neigh   | 0          | 0          | 0          |   0.0 |  0.00
Comm    | 0          | 0          | 0          |   0.0 |  0.00
Output  | 0          | 0          | 0          |   0.0 |  0.00
Modify  | 0          | 0          | 0          |   0.0 |  0.00
Other   |            | 1.083e-06  |            |       |100.00

Nlocal:             80 ave          80 max          80 min
Histogram: 1 0 0 0 0 0 0 0 0 0
Nghost:            593 ave         593 max         593 min
Histogram: 1 0 0 0 0 0 0 0 0 0
Neighs:           4360 ave        4360 max        4360 min
Histogram: 1 0 0 0 0 0 0 0 0 0

Total # of neighbors = 4360
Ave neighs/atom = 54.5
Neighbor list builds = 0
Dangerous builds = 0
set atom * x 0.0 y 0.0 z 0.0
Setting atom values ...
  80 settings made for x
  80 settings made for y
  80 settings made for z
change_box all     x final 0 10.1513025601585 y final 0 10.992866781218266 z final 0 30.923723757773      xy final -10.151302560158506 xz final 0.0 yz final 0.0 units box
Changing box ...
  triclinic box = (0 0 0) to (10.151303 10.992278 30.922067) with tilt (-10.150759 0 0)
  triclinic box = (0 0 0) to (10.151303 10.992867 30.922067) with tilt (-10.150759 0 0)
  triclinic box = (0 0 0) to (10.151303 10.992867 30.923724) with tilt (-10.150759 0 0)
  triclinic box = (0 0 0) to (10.151303 10.992867 30.923724) with tilt (-10.151303 0 0)
  triclinic box = (0 0 0) to (10.151303 10.992867 30.923724) with tilt (-10.151303 0 0)
  triclinic box = (0 0 0) to (10.151303 10.992867 30.923724) with tilt (-10.151303 0 0)
echo none
run 0
Per MPI rank memory allocation (min/avg/max) = 3.328 | 3.328 | 3.328 Mbytes
    PotEng          Pxx           E_mol          E_coul    
-368.29432     -2158.2287      0              0            
Loop time of 7.92e-07 on 1 procs for 0 steps with 80 atoms

252.5% CPU use with 1 MPI tasks x no OpenMP threads

MPI task timing breakdown:
Section |  min time  |  avg time  |  max time  |%varavg| %total
---------------------------------------------------------------
Pair    | 0          | 0          | 0          |   0.0 |  0.00
Neigh   | 0          | 0          | 0          |   0.0 |  0.00
Comm    | 0          | 0          | 0          |   0.0 |  0.00
Output  | 0          | 0          | 0          |   0.0 |  0.00
Modify  | 0          | 0          | 0          |   0.0 |  0.00
Other   |            | 7.92e-07   |            |       |100.00

Nlocal:             80 ave          80 max          80 min
Histogram: 1 0 0 0 0 0 0 0 0 0
Nghost:            593 ave         593 max         593 min
Histogram: 1 0 0 0 0 0 0 0 0 0
Neighs:           4360 ave        4360 max        4360 min
Histogram: 1 0 0 0 0 0 0 0 0 0

Total # of neighbors = 4360
Ave neighs/atom = 54.5
Neighbor list builds = 0
Dangerous builds = 0
Total wall time: 0:00:03
