LAMMPS (23 Jun 2022 - Update 4)
units metal
atom_style atomic
atom_modify map array sort 0 0
boundary p p p
box tilt large
region cell prism    0 3.319 0 3.319 0 3.319     0.0 0.0 0.0     units box
create_box 1 cell
Created triclinic box = (0 0 0) to (3.319 3.319 3.319) with tilt (0 0 0)
  1 by 1 by 1 MPI processor grid
echo none
Created 2 atoms
  using lattice units in triclinic box = (0 0 0) to (3.319 3.319 3.319) with tilt (0 0 0)
  create_atoms CPU = 0.000 seconds
Setting atom values ...
  1 settings made for type
Setting atom values ...
  1 settings made for type
pair_style eam/alloy
pair_coeff * * potentials/Ta.eam.alloy Ta
Reading eam/alloy potential file potentials/Ta.eam.alloy with DATE: 2018-03-30
mass 1 180.947879953452172685501864179969
variable pxx equal pxx
variable pyy equal pyy
variable pzz equal pzz
variable pxy equal pxy
variable pxz equal pxz
variable pyz equal pyz
thermo_style custom pe pxx emol ecoul
variable fx atom fx
variable fy atom fy
variable fz atom fz
variable pe equal pe
neigh_modify delay 0 every 1 check yes
echo none
run 0
WARNING: No fixes with time integration, atoms won't move (src/src/verlet.cpp:60)
Neighbor list info ...
  update every 1 steps, delay 0 steps, check yes
  max neighbors/atom: 2000, page size: 100000
  master list distance cutoff = 8.3953378
  ghost atom cutoff = 8.3953378
  binsize = 4.1976689, bins = 1 1 1
  1 neighbor lists, perpetual/occasional/extra = 1 0 0
  (1) pair eam/alloy, perpetual
      attributes: half, newton on
      pair build: half/bin/newton/tri
      stencil: half/bin/3d/tri
      bin: standard
Per MPI rank memory allocation (min/avg/max) = 3.244 | 3.244 | 3.244 Mbytes
    PotEng          Pxx           E_mol          E_coul    
-16.175238     -27840.803      0              0            
Loop time of 1.25e-06 on 1 procs for 0 steps with 2 atoms

160.0% CPU use with 1 MPI tasks x no OpenMP threads

MPI task timing breakdown:
Section |  min time  |  avg time  |  max time  |%varavg| %total
---------------------------------------------------------------
Pair    | 0          | 0          | 0          |   0.0 |  0.00
Neigh   | 0          | 0          | 0          |   0.0 |  0.00
Comm    | 0          | 0          | 0          |   0.0 |  0.00
Output  | 0          | 0          | 0          |   0.0 |  0.00
Modify  | 0          | 0          | 0          |   0.0 |  0.00
Other   |            | 1.25e-06   |            |       |100.00

Nlocal:              2 ave           2 max           2 min
Histogram: 1 0 0 0 0 0 0 0 0 0
Nghost:            557 ave         557 max         557 min
Histogram: 1 0 0 0 0 0 0 0 0 0
Neighs:            136 ave         136 max         136 min
Histogram: 1 0 0 0 0 0 0 0 0 0

Total # of neighbors = 136
Ave neighs/atom = 68
Neighbor list builds = 0
Dangerous builds = 0
set atom * x 0.0 y 0.0 z 0.0
Setting atom values ...
  2 settings made for x
  2 settings made for y
  2 settings made for z
change_box all     x final 0 3.114695661309215 y final 0 3.114695661309215 z final 0 3.114695661309215      xy final 0.0 xz final 0.0 yz final 0.0 units box
Changing box ...
  triclinic box = (0 0 0) to (3.1146957 3.319 3.319) with tilt (0 0 0)
  triclinic box = (0 0 0) to (3.1146957 3.1146957 3.319) with tilt (0 0 0)
  triclinic box = (0 0 0) to (3.1146957 3.1146957 3.1146957) with tilt (0 0 0)
  triclinic box = (0 0 0) to (3.1146957 3.1146957 3.1146957) with tilt (0 0 0)
  triclinic box = (0 0 0) to (3.1146957 3.1146957 3.1146957) with tilt (0 0 0)
  triclinic box = (0 0 0) to (3.1146957 3.1146957 3.1146957) with tilt (0 0 0)
echo none
run 0
WARNING: No fixes with time integration, atoms won't move (src/src/verlet.cpp:60)
Per MPI rank memory allocation (min/avg/max) = 3.244 | 3.244 | 3.244 Mbytes
    PotEng          Pxx           E_mol          E_coul    
-15.425798      476719.26      0              0            
Loop time of 7.5e-07 on 1 procs for 0 steps with 2 atoms

133.3% CPU use with 1 MPI tasks x no OpenMP threads

MPI task timing breakdown:
Section |  min time  |  avg time  |  max time  |%varavg| %total
---------------------------------------------------------------
Pair    | 0          | 0          | 0          |   0.0 |  0.00
Neigh   | 0          | 0          | 0          |   0.0 |  0.00
Comm    | 0          | 0          | 0          |   0.0 |  0.00
Output  | 0          | 0          | 0          |   0.0 |  0.00
Modify  | 0          | 0          | 0          |   0.0 |  0.00
Other   |            | 7.5e-07    |            |       |100.00

Nlocal:              2 ave           2 max           2 min
Histogram: 1 0 0 0 0 0 0 0 0 0
Nghost:            557 ave         557 max         557 min
Histogram: 1 0 0 0 0 0 0 0 0 0
Neighs:            168 ave         168 max         168 min
Histogram: 1 0 0 0 0 0 0 0 0 0

Total # of neighbors = 168
Ave neighs/atom = 84
Neighbor list builds = 0
Dangerous builds = 0
set atom * x 0.0 y 0.0 z 0.0
Setting atom values ...
  2 settings made for x
  2 settings made for y
  2 settings made for z
change_box all     x final 0 3.3035991521915604 y final 0 3.3035991521915604 z final 0 3.3035991521915604      xy final 0.0 xz final 0.0 yz final 0.0 units box
Changing box ...
  triclinic box = (0 0 0) to (3.3035992 3.1146957 3.1146957) with tilt (0 0 0)
  triclinic box = (0 0 0) to (3.3035992 3.3035992 3.1146957) with tilt (0 0 0)
  triclinic box = (0 0 0) to (3.3035992 3.3035992 3.3035992) with tilt (0 0 0)
  triclinic box = (0 0 0) to (3.3035992 3.3035992 3.3035992) with tilt (0 0 0)
  triclinic box = (0 0 0) to (3.3035992 3.3035992 3.3035992) with tilt (0 0 0)
  triclinic box = (0 0 0) to (3.3035992 3.3035992 3.3035992) with tilt (0 0 0)
echo none
run 0
WARNING: No fixes with time integration, atoms won't move (src/src/verlet.cpp:60)
Per MPI rank memory allocation (min/avg/max) = 3.244 | 3.244 | 3.244 Mbytes
    PotEng          Pxx           E_mol          E_coul    
-16.179983     -1853.1566      0              0            
Loop time of 1.375e-06 on 1 procs for 0 steps with 2 atoms

72.7% CPU use with 1 MPI tasks x no OpenMP threads

MPI task timing breakdown:
Section |  min time  |  avg time  |  max time  |%varavg| %total
---------------------------------------------------------------
Pair    | 0          | 0          | 0          |   0.0 |  0.00
Neigh   | 0          | 0          | 0          |   0.0 |  0.00
Comm    | 0          | 0          | 0          |   0.0 |  0.00
Output  | 0          | 0          | 0          |   0.0 |  0.00
Modify  | 0          | 0          | 0          |   0.0 |  0.00
Other   |            | 1.375e-06  |            |       |100.00

Nlocal:              2 ave           2 max           2 min
Histogram: 1 0 0 0 0 0 0 0 0 0
Nghost:            557 ave         557 max         557 min
Histogram: 1 0 0 0 0 0 0 0 0 0
Neighs:            136 ave         136 max         136 min
Histogram: 1 0 0 0 0 0 0 0 0 0

Total # of neighbors = 136
Ave neighs/atom = 68
Neighbor list builds = 0
Dangerous builds = 0
set atom * x 0.0 y 0.0 z 0.0
Setting atom values ...
  2 settings made for x
  2 settings made for y
  2 settings made for z
change_box all     x final 0 3.3025199075442124 y final 0 3.3025199075442124 z final 0 3.3025199075442124      xy final 0.0 xz final 0.0 yz final 0.0 units box
Changing box ...
  triclinic box = (0 0 0) to (3.3025199 3.3035992 3.3035992) with tilt (0 0 0)
  triclinic box = (0 0 0) to (3.3025199 3.3025199 3.3035992) with tilt (0 0 0)
  triclinic box = (0 0 0) to (3.3025199 3.3025199 3.3025199) with tilt (0 0 0)
  triclinic box = (0 0 0) to (3.3025199 3.3025199 3.3025199) with tilt (0 0 0)
  triclinic box = (0 0 0) to (3.3025199 3.3025199 3.3025199) with tilt (0 0 0)
  triclinic box = (0 0 0) to (3.3025199 3.3025199 3.3025199) with tilt (0 0 0)
echo none
run 0
WARNING: No fixes with time integration, atoms won't move (src/src/verlet.cpp:60)
Per MPI rank memory allocation (min/avg/max) = 3.244 | 3.244 | 3.244 Mbytes
    PotEng          Pxx           E_mol          E_coul    
-16.180003      31.792557      0              0            
Loop time of 1.25e-06 on 1 procs for 0 steps with 2 atoms

80.0% CPU use with 1 MPI tasks x no OpenMP threads

MPI task timing breakdown:
Section |  min time  |  avg time  |  max time  |%varavg| %total
---------------------------------------------------------------
Pair    | 0          | 0          | 0          |   0.0 |  0.00
Neigh   | 0          | 0          | 0          |   0.0 |  0.00
Comm    | 0          | 0          | 0          |   0.0 |  0.00
Output  | 0          | 0          | 0          |   0.0 |  0.00
Modify  | 0          | 0          | 0          |   0.0 |  0.00
Other   |            | 1.25e-06   |            |       |100.00

Nlocal:              2 ave           2 max           2 min
Histogram: 1 0 0 0 0 0 0 0 0 0
Nghost:            557 ave         557 max         557 min
Histogram: 1 0 0 0 0 0 0 0 0 0
Neighs:            136 ave         136 max         136 min
Histogram: 1 0 0 0 0 0 0 0 0 0

Total # of neighbors = 136
Ave neighs/atom = 68
Neighbor list builds = 0
Dangerous builds = 0
set atom * x 0.0 y 0.0 z 0.0
Setting atom values ...
  2 settings made for x
  2 settings made for y
  2 settings made for z
change_box all     x final 0 2.972267916789791 y final 0 2.972267916789791 z final 0 2.972267916789791      xy final 0.0 xz final 0.0 yz final 0.0 units box
Changing box ...
  triclinic box = (0 0 0) to (2.9722679 3.3025199 3.3025199) with tilt (0 0 0)
  triclinic box = (0 0 0) to (2.9722679 2.9722679 3.3025199) with tilt (0 0 0)
  triclinic box = (0 0 0) to (2.9722679 2.9722679 2.9722679) with tilt (0 0 0)
  triclinic box = (0 0 0) to (2.9722679 2.9722679 2.9722679) with tilt (0 0 0)
  triclinic box = (0 0 0) to (2.9722679 2.9722679 2.9722679) with tilt (0 0 0)
  triclinic box = (0 0 0) to (2.9722679 2.9722679 2.9722679) with tilt (0 0 0)
echo none
run 0
WARNING: No fixes with time integration, atoms won't move (src/src/verlet.cpp:60)
Per MPI rank memory allocation (min/avg/max) = 3.244 | 3.244 | 3.244 Mbytes
    PotEng          Pxx           E_mol          E_coul    
-13.536677      1117177        0              0            
Loop time of 7.92e-07 on 1 procs for 0 steps with 2 atoms

252.5% CPU use with 1 MPI tasks x no OpenMP threads

MPI task timing breakdown:
Section |  min time  |  avg time  |  max time  |%varavg| %total
---------------------------------------------------------------
Pair    | 0          | 0          | 0          |   0.0 |  0.00
Neigh   | 0          | 0          | 0          |   0.0 |  0.00
Comm    | 0          | 0          | 0          |   0.0 |  0.00
Output  | 0          | 0          | 0          |   0.0 |  0.00
Modify  | 0          | 0          | 0          |   0.0 |  0.00
Other   |            | 7.92e-07   |            |       |100.00

Nlocal:              2 ave           2 max           2 min
Histogram: 1 0 0 0 0 0 0 0 0 0
Nghost:            557 ave         557 max         557 min
Histogram: 1 0 0 0 0 0 0 0 0 0
Neighs:            168 ave         168 max         168 min
Histogram: 1 0 0 0 0 0 0 0 0 0

Total # of neighbors = 168
Ave neighs/atom = 84
Neighbor list builds = 0
Dangerous builds = 0
set atom * x 0.0 y 0.0 z 0.0
Setting atom values ...
  2 settings made for x
  2 settings made for y
  2 settings made for z
change_box all     x final 0 3.0052931158652334 y final 0 3.0052931158652334 z final 0 3.0052931158652334      xy final 0.0 xz final 0.0 yz final 0.0 units box
Changing box ...
  triclinic box = (0 0 0) to (3.0052931 2.9722679 2.9722679) with tilt (0 0 0)
  triclinic box = (0 0 0) to (3.0052931 3.0052931 2.9722679) with tilt (0 0 0)
  triclinic box = (0 0 0) to (3.0052931 3.0052931 3.0052931) with tilt (0 0 0)
  triclinic box = (0 0 0) to (3.0052931 3.0052931 3.0052931) with tilt (0 0 0)
  triclinic box = (0 0 0) to (3.0052931 3.0052931 3.0052931) with tilt (0 0 0)
  triclinic box = (0 0 0) to (3.0052931 3.0052931 3.0052931) with tilt (0 0 0)
echo none
run 0
WARNING: No fixes with time integration, atoms won't move (src/src/verlet.cpp:60)
Per MPI rank memory allocation (min/avg/max) = 3.244 | 3.244 | 3.244 Mbytes
    PotEng          Pxx           E_mol          E_coul    
-14.103165      938067.83      0              0            
Loop time of 8.33e-07 on 1 procs for 0 steps with 2 atoms

120.0% CPU use with 1 MPI tasks x no OpenMP threads

MPI task timing breakdown:
Section |  min time  |  avg time  |  max time  |%varavg| %total
---------------------------------------------------------------
Pair    | 0          | 0          | 0          |   0.0 |  0.00
Neigh   | 0          | 0          | 0          |   0.0 |  0.00
Comm    | 0          | 0          | 0          |   0.0 |  0.00
Output  | 0          | 0          | 0          |   0.0 |  0.00
Modify  | 0          | 0          | 0          |   0.0 |  0.00
Other   |            | 8.33e-07   |            |       |100.00

Nlocal:              2 ave           2 max           2 min
Histogram: 1 0 0 0 0 0 0 0 0 0
Nghost:            557 ave         557 max         557 min
Histogram: 1 0 0 0 0 0 0 0 0 0
Neighs:            168 ave         168 max         168 min
Histogram: 1 0 0 0 0 0 0 0 0 0

Total # of neighbors = 168
Ave neighs/atom = 84
Neighbor list builds = 0
Dangerous builds = 0
set atom * x 0.0 y 0.0 z 0.0
Setting atom values ...
  2 settings made for x
  2 settings made for y
  2 settings made for z
change_box all     x final 0 3.0383183149406756 y final 0 3.0383183149406756 z final 0 3.0383183149406756      xy final 0.0 xz final 0.0 yz final 0.0 units box
Changing box ...
  triclinic box = (0 0 0) to (3.0383183 3.0052931 3.0052931) with tilt (0 0 0)
  triclinic box = (0 0 0) to (3.0383183 3.0383183 3.0052931) with tilt (0 0 0)
  triclinic box = (0 0 0) to (3.0383183 3.0383183 3.0383183) with tilt (0 0 0)
  triclinic box = (0 0 0) to (3.0383183 3.0383183 3.0383183) with tilt (0 0 0)
  triclinic box = (0 0 0) to (3.0383183 3.0383183 3.0383183) with tilt (0 0 0)
  triclinic box = (0 0 0) to (3.0383183 3.0383183 3.0383183) with tilt (0 0 0)
echo none
run 0
WARNING: No fixes with time integration, atoms won't move (src/src/verlet.cpp:60)
Per MPI rank memory allocation (min/avg/max) = 3.244 | 3.244 | 3.244 Mbytes
    PotEng          Pxx           E_mol          E_coul    
-14.586922      779092.73      0              0            
Loop time of 1e-06 on 1 procs for 0 steps with 2 atoms

0.0% CPU use with 1 MPI tasks x no OpenMP threads

MPI task timing breakdown:
Section |  min time  |  avg time  |  max time  |%varavg| %total
---------------------------------------------------------------
Pair    | 0          | 0          | 0          |   0.0 |  0.00
Neigh   | 0          | 0          | 0          |   0.0 |  0.00
Comm    | 0          | 0          | 0          |   0.0 |  0.00
Output  | 0          | 0          | 0          |   0.0 |  0.00
Modify  | 0          | 0          | 0          |   0.0 |  0.00
Other   |            | 1e-06      |            |       |100.00

Nlocal:              2 ave           2 max           2 min
Histogram: 1 0 0 0 0 0 0 0 0 0
Nghost:            557 ave         557 max         557 min
Histogram: 1 0 0 0 0 0 0 0 0 0
Neighs:            168 ave         168 max         168 min
Histogram: 1 0 0 0 0 0 0 0 0 0

Total # of neighbors = 168
Ave neighs/atom = 84
Neighbor list builds = 0
Dangerous builds = 0
set atom * x 0.0 y 0.0 z 0.0
Setting atom values ...
  2 settings made for x
  2 settings made for y
  2 settings made for z
change_box all     x final 0 3.071343514016118 y final 0 3.071343514016118 z final 0 3.071343514016118      xy final 0.0 xz final 0.0 yz final 0.0 units box
Changing box ...
  triclinic box = (0 0 0) to (3.0713435 3.0383183 3.0383183) with tilt (0 0 0)
  triclinic box = (0 0 0) to (3.0713435 3.0713435 3.0383183) with tilt (0 0 0)
  triclinic box = (0 0 0) to (3.0713435 3.0713435 3.0713435) with tilt (0 0 0)
  triclinic box = (0 0 0) to (3.0713435 3.0713435 3.0713435) with tilt (0 0 0)
  triclinic box = (0 0 0) to (3.0713435 3.0713435 3.0713435) with tilt (0 0 0)
  triclinic box = (0 0 0) to (3.0713435 3.0713435 3.0713435) with tilt (0 0 0)
echo none
run 0
WARNING: No fixes with time integration, atoms won't move (src/src/verlet.cpp:60)
Per MPI rank memory allocation (min/avg/max) = 3.244 | 3.244 | 3.244 Mbytes
    PotEng          Pxx           E_mol          E_coul    
-14.994863      638044.37      0              0            
Loop time of 1.125e-06 on 1 procs for 0 steps with 2 atoms

177.8% CPU use with 1 MPI tasks x no OpenMP threads

MPI task timing breakdown:
Section |  min time  |  avg time  |  max time  |%varavg| %total
---------------------------------------------------------------
Pair    | 0          | 0          | 0          |   0.0 |  0.00
Neigh   | 0          | 0          | 0          |   0.0 |  0.00
Comm    | 0          | 0          | 0          |   0.0 |  0.00
Output  | 0          | 0          | 0          |   0.0 |  0.00
Modify  | 0          | 0          | 0          |   0.0 |  0.00
Other   |            | 1.125e-06  |            |       |100.00

Nlocal:              2 ave           2 max           2 min
Histogram: 1 0 0 0 0 0 0 0 0 0
Nghost:            557 ave         557 max         557 min
Histogram: 1 0 0 0 0 0 0 0 0 0
Neighs:            168 ave         168 max         168 min
Histogram: 1 0 0 0 0 0 0 0 0 0

Total # of neighbors = 168
Ave neighs/atom = 84
Neighbor list builds = 0
Dangerous builds = 0
set atom * x 0.0 y 0.0 z 0.0
Setting atom values ...
  2 settings made for x
  2 settings made for y
  2 settings made for z
change_box all     x final 0 3.10436871309156 y final 0 3.10436871309156 z final 0 3.10436871309156      xy final 0.0 xz final 0.0 yz final 0.0 units box
Changing box ...
  triclinic box = (0 0 0) to (3.1043687 3.0713435 3.0713435) with tilt (0 0 0)
  triclinic box = (0 0 0) to (3.1043687 3.1043687 3.0713435) with tilt (0 0 0)
  triclinic box = (0 0 0) to (3.1043687 3.1043687 3.1043687) with tilt (0 0 0)
  triclinic box = (0 0 0) to (3.1043687 3.1043687 3.1043687) with tilt (0 0 0)
  triclinic box = (0 0 0) to (3.1043687 3.1043687 3.1043687) with tilt (0 0 0)
  triclinic box = (0 0 0) to (3.1043687 3.1043687 3.1043687) with tilt (0 0 0)
echo none
run 0
WARNING: No fixes with time integration, atoms won't move (src/src/verlet.cpp:60)
Per MPI rank memory allocation (min/avg/max) = 3.244 | 3.244 | 3.244 Mbytes
    PotEng          Pxx           E_mol          E_coul    
-15.333308      512894.88      0              0            
Loop time of 1.041e-06 on 1 procs for 0 steps with 2 atoms

192.1% CPU use with 1 MPI tasks x no OpenMP threads

MPI task timing breakdown:
Section |  min time  |  avg time  |  max time  |%varavg| %total
---------------------------------------------------------------
Pair    | 0          | 0          | 0          |   0.0 |  0.00
Neigh   | 0          | 0          | 0          |   0.0 |  0.00
Comm    | 0          | 0          | 0          |   0.0 |  0.00
Output  | 0          | 0          | 0          |   0.0 |  0.00
Modify  | 0          | 0          | 0          |   0.0 |  0.00
Other   |            | 1.041e-06  |            |       |100.00

Nlocal:              2 ave           2 max           2 min
Histogram: 1 0 0 0 0 0 0 0 0 0
Nghost:            557 ave         557 max         557 min
Histogram: 1 0 0 0 0 0 0 0 0 0
Neighs:            168 ave         168 max         168 min
Histogram: 1 0 0 0 0 0 0 0 0 0

Total # of neighbors = 168
Ave neighs/atom = 84
Neighbor list builds = 0
Dangerous builds = 0
set atom * x 0.0 y 0.0 z 0.0
Setting atom values ...
  2 settings made for x
  2 settings made for y
  2 settings made for z
change_box all     x final 0 3.137393912167002 y final 0 3.137393912167002 z final 0 3.137393912167002      xy final 0.0 xz final 0.0 yz final 0.0 units box
Changing box ...
  triclinic box = (0 0 0) to (3.1373939 3.1043687 3.1043687) with tilt (0 0 0)
  triclinic box = (0 0 0) to (3.1373939 3.1373939 3.1043687) with tilt (0 0 0)
  triclinic box = (0 0 0) to (3.1373939 3.1373939 3.1373939) with tilt (0 0 0)
  triclinic box = (0 0 0) to (3.1373939 3.1373939 3.1373939) with tilt (0 0 0)
  triclinic box = (0 0 0) to (3.1373939 3.1373939 3.1373939) with tilt (0 0 0)
  triclinic box = (0 0 0) to (3.1373939 3.1373939 3.1373939) with tilt (0 0 0)
echo none
run 0
WARNING: No fixes with time integration, atoms won't move (src/src/verlet.cpp:60)
Per MPI rank memory allocation (min/avg/max) = 3.244 | 3.244 | 3.244 Mbytes
    PotEng          Pxx           E_mol          E_coul    
-15.607977      401739.09      0              0            
Loop time of 1e-06 on 1 procs for 0 steps with 2 atoms

200.0% CPU use with 1 MPI tasks x no OpenMP threads

MPI task timing breakdown:
Section |  min time  |  avg time  |  max time  |%varavg| %total
---------------------------------------------------------------
Pair    | 0          | 0          | 0          |   0.0 |  0.00
Neigh   | 0          | 0          | 0          |   0.0 |  0.00
Comm    | 0          | 0          | 0          |   0.0 |  0.00
Output  | 0          | 0          | 0          |   0.0 |  0.00
Modify  | 0          | 0          | 0          |   0.0 |  0.00
Other   |            | 1e-06      |            |       |100.00

Nlocal:              2 ave           2 max           2 min
Histogram: 1 0 0 0 0 0 0 0 0 0
Nghost:            557 ave         557 max         557 min
Histogram: 1 0 0 0 0 0 0 0 0 0
Neighs:            168 ave         168 max         168 min
Histogram: 1 0 0 0 0 0 0 0 0 0

Total # of neighbors = 168
Ave neighs/atom = 84
Neighbor list builds = 0
Dangerous builds = 0
set atom * x 0.0 y 0.0 z 0.0
Setting atom values ...
  2 settings made for x
  2 settings made for y
  2 settings made for z
change_box all     x final 0 3.170419111242444 y final 0 3.170419111242444 z final 0 3.170419111242444      xy final 0.0 xz final 0.0 yz final 0.0 units box
Changing box ...
  triclinic box = (0 0 0) to (3.1704191 3.1373939 3.1373939) with tilt (0 0 0)
  triclinic box = (0 0 0) to (3.1704191 3.1704191 3.1373939) with tilt (0 0 0)
  triclinic box = (0 0 0) to (3.1704191 3.1704191 3.1704191) with tilt (0 0 0)
  triclinic box = (0 0 0) to (3.1704191 3.1704191 3.1704191) with tilt (0 0 0)
  triclinic box = (0 0 0) to (3.1704191 3.1704191 3.1704191) with tilt (0 0 0)
  triclinic box = (0 0 0) to (3.1704191 3.1704191 3.1704191) with tilt (0 0 0)
echo none
run 0
WARNING: No fixes with time integration, atoms won't move (src/src/verlet.cpp:60)
Per MPI rank memory allocation (min/avg/max) = 3.244 | 3.244 | 3.244 Mbytes
    PotEng          Pxx           E_mol          E_coul    
-15.823974      302795.55      0              0            
Loop time of 1.25e-06 on 1 procs for 0 steps with 2 atoms

80.0% CPU use with 1 MPI tasks x no OpenMP threads

MPI task timing breakdown:
Section |  min time  |  avg time  |  max time  |%varavg| %total
---------------------------------------------------------------
Pair    | 0          | 0          | 0          |   0.0 |  0.00
Neigh   | 0          | 0          | 0          |   0.0 |  0.00
Comm    | 0          | 0          | 0          |   0.0 |  0.00
Output  | 0          | 0          | 0          |   0.0 |  0.00
Modify  | 0          | 0          | 0          |   0.0 |  0.00
Other   |            | 1.25e-06   |            |       |100.00

Nlocal:              2 ave           2 max           2 min
Histogram: 1 0 0 0 0 0 0 0 0 0
Nghost:            557 ave         557 max         557 min
Histogram: 1 0 0 0 0 0 0 0 0 0
Neighs:            168 ave         168 max         168 min
Histogram: 1 0 0 0 0 0 0 0 0 0

Total # of neighbors = 168
Ave neighs/atom = 84
Neighbor list builds = 0
Dangerous builds = 0
set atom * x 0.0 y 0.0 z 0.0
Setting atom values ...
  2 settings made for x
  2 settings made for y
  2 settings made for z
change_box all     x final 0 3.2034443103178862 y final 0 3.2034443103178862 z final 0 3.2034443103178862      xy final 0.0 xz final 0.0 yz final 0.0 units box
Changing box ...
  triclinic box = (0 0 0) to (3.2034443 3.1704191 3.1704191) with tilt (0 0 0)
  triclinic box = (0 0 0) to (3.2034443 3.2034443 3.1704191) with tilt (0 0 0)
  triclinic box = (0 0 0) to (3.2034443 3.2034443 3.2034443) with tilt (0 0 0)
  triclinic box = (0 0 0) to (3.2034443 3.2034443 3.2034443) with tilt (0 0 0)
  triclinic box = (0 0 0) to (3.2034443 3.2034443 3.2034443) with tilt (0 0 0)
  triclinic box = (0 0 0) to (3.2034443 3.2034443 3.2034443) with tilt (0 0 0)
echo none
run 0
WARNING: No fixes with time integration, atoms won't move (src/src/verlet.cpp:60)
Per MPI rank memory allocation (min/avg/max) = 3.244 | 3.244 | 3.244 Mbytes
    PotEng          Pxx           E_mol          E_coul    
-15.985793      214441.47      0              0            
Loop time of 7.09e-07 on 1 procs for 0 steps with 2 atoms

0.0% CPU use with 1 MPI tasks x no OpenMP threads

MPI task timing breakdown:
Section |  min time  |  avg time  |  max time  |%varavg| %total
---------------------------------------------------------------
Pair    | 0          | 0          | 0          |   0.0 |  0.00
Neigh   | 0          | 0          | 0          |   0.0 |  0.00
Comm    | 0          | 0          | 0          |   0.0 |  0.00
Output  | 0          | 0          | 0          |   0.0 |  0.00
Modify  | 0          | 0          | 0          |   0.0 |  0.00
Other   |            | 7.09e-07   |            |       |100.00

Nlocal:              2 ave           2 max           2 min
Histogram: 1 0 0 0 0 0 0 0 0 0
Nghost:            557 ave         557 max         557 min
Histogram: 1 0 0 0 0 0 0 0 0 0
Neighs:            168 ave         168 max         168 min
Histogram: 1 0 0 0 0 0 0 0 0 0

Total # of neighbors = 168
Ave neighs/atom = 84
Neighbor list builds = 0
Dangerous builds = 0
set atom * x 0.0 y 0.0 z 0.0
Setting atom values ...
  2 settings made for x
  2 settings made for y
  2 settings made for z
change_box all     x final 0 3.2364695093933284 y final 0 3.2364695093933284 z final 0 3.2364695093933284      xy final 0.0 xz final 0.0 yz final 0.0 units box
Changing box ...
  triclinic box = (0 0 0) to (3.2364695 3.2034443 3.2034443) with tilt (0 0 0)
  triclinic box = (0 0 0) to (3.2364695 3.2364695 3.2034443) with tilt (0 0 0)
  triclinic box = (0 0 0) to (3.2364695 3.2364695 3.2364695) with tilt (0 0 0)
  triclinic box = (0 0 0) to (3.2364695 3.2364695 3.2364695) with tilt (0 0 0)
  triclinic box = (0 0 0) to (3.2364695 3.2364695 3.2364695) with tilt (0 0 0)
  triclinic box = (0 0 0) to (3.2364695 3.2364695 3.2364695) with tilt (0 0 0)
echo none
run 0
WARNING: No fixes with time integration, atoms won't move (src/src/verlet.cpp:60)
Per MPI rank memory allocation (min/avg/max) = 3.244 | 3.244 | 3.244 Mbytes
    PotEng          Pxx           E_mol          E_coul    
-16.096609      133102.81      0              0            
Loop time of 5e-07 on 1 procs for 0 steps with 2 atoms

200.0% CPU use with 1 MPI tasks x no OpenMP threads

MPI task timing breakdown:
Section |  min time  |  avg time  |  max time  |%varavg| %total
---------------------------------------------------------------
Pair    | 0          | 0          | 0          |   0.0 |  0.00
Neigh   | 0          | 0          | 0          |   0.0 |  0.00
Comm    | 0          | 0          | 0          |   0.0 |  0.00
Output  | 0          | 0          | 0          |   0.0 |  0.00
Modify  | 0          | 0          | 0          |   0.0 |  0.00
Other   |            | 5e-07      |            |       |100.00

Nlocal:              2 ave           2 max           2 min
Histogram: 1 0 0 0 0 0 0 0 0 0
Nghost:            557 ave         557 max         557 min
Histogram: 1 0 0 0 0 0 0 0 0 0
Neighs:            136 ave         136 max         136 min
Histogram: 1 0 0 0 0 0 0 0 0 0

Total # of neighbors = 136
Ave neighs/atom = 68
Neighbor list builds = 0
Dangerous builds = 0
set atom * x 0.0 y 0.0 z 0.0
Setting atom values ...
  2 settings made for x
  2 settings made for y
  2 settings made for z
change_box all     x final 0 3.2694947084687707 y final 0 3.2694947084687707 z final 0 3.2694947084687707      xy final 0.0 xz final 0.0 yz final 0.0 units box
Changing box ...
  triclinic box = (0 0 0) to (3.2694947 3.2364695 3.2364695) with tilt (0 0 0)
  triclinic box = (0 0 0) to (3.2694947 3.2694947 3.2364695) with tilt (0 0 0)
  triclinic box = (0 0 0) to (3.2694947 3.2694947 3.2694947) with tilt (0 0 0)
  triclinic box = (0 0 0) to (3.2694947 3.2694947 3.2694947) with tilt (0 0 0)
  triclinic box = (0 0 0) to (3.2694947 3.2694947 3.2694947) with tilt (0 0 0)
  triclinic box = (0 0 0) to (3.2694947 3.2694947 3.2694947) with tilt (0 0 0)
echo none
run 0
WARNING: No fixes with time integration, atoms won't move (src/src/verlet.cpp:60)
Per MPI rank memory allocation (min/avg/max) = 3.244 | 3.244 | 3.244 Mbytes
    PotEng          Pxx           E_mol          E_coul    
-16.159833      62006.262      0              0            
Loop time of 1.167e-06 on 1 procs for 0 steps with 2 atoms

85.7% CPU use with 1 MPI tasks x no OpenMP threads

MPI task timing breakdown:
Section |  min time  |  avg time  |  max time  |%varavg| %total
---------------------------------------------------------------
Pair    | 0          | 0          | 0          |   0.0 |  0.00
Neigh   | 0          | 0          | 0          |   0.0 |  0.00
Comm    | 0          | 0          | 0          |   0.0 |  0.00
Output  | 0          | 0          | 0          |   0.0 |  0.00
Modify  | 0          | 0          | 0          |   0.0 |  0.00
Other   |            | 1.167e-06  |            |       |100.00

Nlocal:              2 ave           2 max           2 min
Histogram: 1 0 0 0 0 0 0 0 0 0
Nghost:            557 ave         557 max         557 min
Histogram: 1 0 0 0 0 0 0 0 0 0
Neighs:            136 ave         136 max         136 min
Histogram: 1 0 0 0 0 0 0 0 0 0

Total # of neighbors = 136
Ave neighs/atom = 68
Neighbor list builds = 0
Dangerous builds = 0
set atom * x 0.0 y 0.0 z 0.0
Setting atom values ...
  2 settings made for x
  2 settings made for y
  2 settings made for z
change_box all     x final 0 3.3025199075442124 y final 0 3.3025199075442124 z final 0 3.3025199075442124      xy final 0.0 xz final 0.0 yz final 0.0 units box
Changing box ...
  triclinic box = (0 0 0) to (3.3025199 3.2694947 3.2694947) with tilt (0 0 0)
  triclinic box = (0 0 0) to (3.3025199 3.3025199 3.2694947) with tilt (0 0 0)
  triclinic box = (0 0 0) to (3.3025199 3.3025199 3.3025199) with tilt (0 0 0)
  triclinic box = (0 0 0) to (3.3025199 3.3025199 3.3025199) with tilt (0 0 0)
  triclinic box = (0 0 0) to (3.3025199 3.3025199 3.3025199) with tilt (0 0 0)
  triclinic box = (0 0 0) to (3.3025199 3.3025199 3.3025199) with tilt (0 0 0)
echo none
run 0
WARNING: No fixes with time integration, atoms won't move (src/src/verlet.cpp:60)
Per MPI rank memory allocation (min/avg/max) = 3.244 | 3.244 | 3.244 Mbytes
    PotEng          Pxx           E_mol          E_coul    
-16.180003      31.792557      0              0            
Loop time of 9.59e-07 on 1 procs for 0 steps with 2 atoms

104.3% CPU use with 1 MPI tasks x no OpenMP threads

MPI task timing breakdown:
Section |  min time  |  avg time  |  max time  |%varavg| %total
---------------------------------------------------------------
Pair    | 0          | 0          | 0          |   0.0 |  0.00
Neigh   | 0          | 0          | 0          |   0.0 |  0.00
Comm    | 0          | 0          | 0          |   0.0 |  0.00
Output  | 0          | 0          | 0          |   0.0 |  0.00
Modify  | 0          | 0          | 0          |   0.0 |  0.00
Other   |            | 9.59e-07   |            |       |100.00

Nlocal:              2 ave           2 max           2 min
Histogram: 1 0 0 0 0 0 0 0 0 0
Nghost:            557 ave         557 max         557 min
Histogram: 1 0 0 0 0 0 0 0 0 0
Neighs:            136 ave         136 max         136 min
Histogram: 1 0 0 0 0 0 0 0 0 0

Total # of neighbors = 136
Ave neighs/atom = 68
Neighbor list builds = 0
Dangerous builds = 0
set atom * x 0.0 y 0.0 z 0.0
Setting atom values ...
  2 settings made for x
  2 settings made for y
  2 settings made for z
change_box all     x final 0 3.3355451066196555 y final 0 3.3355451066196555 z final 0 3.3355451066196555      xy final 0.0 xz final 0.0 yz final 0.0 units box
Changing box ...
  triclinic box = (0 0 0) to (3.3355451 3.3025199 3.3025199) with tilt (0 0 0)
  triclinic box = (0 0 0) to (3.3355451 3.3355451 3.3025199) with tilt (0 0 0)
  triclinic box = (0 0 0) to (3.3355451 3.3355451 3.3355451) with tilt (0 0 0)
  triclinic box = (0 0 0) to (3.3355451 3.3355451 3.3355451) with tilt (0 0 0)
  triclinic box = (0 0 0) to (3.3355451 3.3355451 3.3355451) with tilt (0 0 0)
  triclinic box = (0 0 0) to (3.3355451 3.3355451 3.3355451) with tilt (0 0 0)
echo none
run 0
WARNING: No fixes with time integration, atoms won't move (src/src/verlet.cpp:60)
Per MPI rank memory allocation (min/avg/max) = 3.244 | 3.244 | 3.244 Mbytes
    PotEng          Pxx           E_mol          E_coul    
-16.161155     -53930.744      0              0            
Loop time of 9.16e-07 on 1 procs for 0 steps with 2 atoms

109.2% CPU use with 1 MPI tasks x no OpenMP threads

MPI task timing breakdown:
Section |  min time  |  avg time  |  max time  |%varavg| %total
---------------------------------------------------------------
Pair    | 0          | 0          | 0          |   0.0 |  0.00
Neigh   | 0          | 0          | 0          |   0.0 |  0.00
Comm    | 0          | 0          | 0          |   0.0 |  0.00
Output  | 0          | 0          | 0          |   0.0 |  0.00
Modify  | 0          | 0          | 0          |   0.0 |  0.00
Other   |            | 9.16e-07   |            |       |100.00

Nlocal:              2 ave           2 max           2 min
Histogram: 1 0 0 0 0 0 0 0 0 0
Nghost:            557 ave         557 max         557 min
Histogram: 1 0 0 0 0 0 0 0 0 0
Neighs:            136 ave         136 max         136 min
Histogram: 1 0 0 0 0 0 0 0 0 0

Total # of neighbors = 136
Ave neighs/atom = 68
Neighbor list builds = 0
Dangerous builds = 0
set atom * x 0.0 y 0.0 z 0.0
Setting atom values ...
  2 settings made for x
  2 settings made for y
  2 settings made for z
change_box all     x final 0 3.368570305695097 y final 0 3.368570305695097 z final 0 3.368570305695097      xy final 0.0 xz final 0.0 yz final 0.0 units box
Changing box ...
  triclinic box = (0 0 0) to (3.3685703 3.3355451 3.3355451) with tilt (0 0 0)
  triclinic box = (0 0 0) to (3.3685703 3.3685703 3.3355451) with tilt (0 0 0)
  triclinic box = (0 0 0) to (3.3685703 3.3685703 3.3685703) with tilt (0 0 0)
  triclinic box = (0 0 0) to (3.3685703 3.3685703 3.3685703) with tilt (0 0 0)
  triclinic box = (0 0 0) to (3.3685703 3.3685703 3.3685703) with tilt (0 0 0)
  triclinic box = (0 0 0) to (3.3685703 3.3685703 3.3685703) with tilt (0 0 0)
echo none
run 0
WARNING: No fixes with time integration, atoms won't move (src/src/verlet.cpp:60)
Per MPI rank memory allocation (min/avg/max) = 3.244 | 3.244 | 3.244 Mbytes
    PotEng          Pxx           E_mol          E_coul    
-16.106981     -100706.42      0              0            
Loop time of 8.75e-07 on 1 procs for 0 steps with 2 atoms

114.3% CPU use with 1 MPI tasks x no OpenMP threads

MPI task timing breakdown:
Section |  min time  |  avg time  |  max time  |%varavg| %total
---------------------------------------------------------------
Pair    | 0          | 0          | 0          |   0.0 |  0.00
Neigh   | 0          | 0          | 0          |   0.0 |  0.00
Comm    | 0          | 0          | 0          |   0.0 |  0.00
Output  | 0          | 0          | 0          |   0.0 |  0.00
Modify  | 0          | 0          | 0          |   0.0 |  0.00
Other   |            | 8.75e-07   |            |       |100.00

Nlocal:              2 ave           2 max           2 min
Histogram: 1 0 0 0 0 0 0 0 0 0
Nghost:            339 ave         339 max         339 min
Histogram: 1 0 0 0 0 0 0 0 0 0
Neighs:            136 ave         136 max         136 min
Histogram: 1 0 0 0 0 0 0 0 0 0

Total # of neighbors = 136
Ave neighs/atom = 68
Neighbor list builds = 0
Dangerous builds = 0
set atom * x 0.0 y 0.0 z 0.0
Setting atom values ...
  2 settings made for x
  2 settings made for y
  2 settings made for z
change_box all     x final 0 3.4015955047705395 y final 0 3.4015955047705395 z final 0 3.4015955047705395      xy final 0.0 xz final 0.0 yz final 0.0 units box
Changing box ...
  triclinic box = (0 0 0) to (3.4015955 3.3685703 3.3685703) with tilt (0 0 0)
  triclinic box = (0 0 0) to (3.4015955 3.4015955 3.3685703) with tilt (0 0 0)
  triclinic box = (0 0 0) to (3.4015955 3.4015955 3.4015955) with tilt (0 0 0)
  triclinic box = (0 0 0) to (3.4015955 3.4015955 3.4015955) with tilt (0 0 0)
  triclinic box = (0 0 0) to (3.4015955 3.4015955 3.4015955) with tilt (0 0 0)
  triclinic box = (0 0 0) to (3.4015955 3.4015955 3.4015955) with tilt (0 0 0)
echo none
run 0
WARNING: No fixes with time integration, atoms won't move (src/src/verlet.cpp:60)
Per MPI rank memory allocation (min/avg/max) = 3.244 | 3.244 | 3.244 Mbytes
    PotEng          Pxx           E_mol          E_coul    
-16.020951     -140940.01      0              0            
Loop time of 7.09e-07 on 1 procs for 0 steps with 2 atoms

0.0% CPU use with 1 MPI tasks x no OpenMP threads

MPI task timing breakdown:
Section |  min time  |  avg time  |  max time  |%varavg| %total
---------------------------------------------------------------
Pair    | 0          | 0          | 0          |   0.0 |  0.00
Neigh   | 0          | 0          | 0          |   0.0 |  0.00
Comm    | 0          | 0          | 0          |   0.0 |  0.00
Output  | 0          | 0          | 0          |   0.0 |  0.00
Modify  | 0          | 0          | 0          |   0.0 |  0.00
Other   |            | 7.09e-07   |            |       |100.00

Nlocal:              2 ave           2 max           2 min
Histogram: 1 0 0 0 0 0 0 0 0 0
Nghost:            339 ave         339 max         339 min
Histogram: 1 0 0 0 0 0 0 0 0 0
Neighs:            136 ave         136 max         136 min
Histogram: 1 0 0 0 0 0 0 0 0 0

Total # of neighbors = 136
Ave neighs/atom = 68
Neighbor list builds = 0
Dangerous builds = 0
set atom * x 0.0 y 0.0 z 0.0
Setting atom values ...
  2 settings made for x
  2 settings made for y
  2 settings made for z
change_box all     x final 0 3.434620703845981 y final 0 3.434620703845981 z final 0 3.434620703845981      xy final 0.0 xz final 0.0 yz final 0.0 units box
Changing box ...
  triclinic box = (0 0 0) to (3.4346207 3.4015955 3.4015955) with tilt (0 0 0)
  triclinic box = (0 0 0) to (3.4346207 3.4346207 3.4015955) with tilt (0 0 0)
  triclinic box = (0 0 0) to (3.4346207 3.4346207 3.4346207) with tilt (0 0 0)
  triclinic box = (0 0 0) to (3.4346207 3.4346207 3.4346207) with tilt (0 0 0)
  triclinic box = (0 0 0) to (3.4346207 3.4346207 3.4346207) with tilt (0 0 0)
  triclinic box = (0 0 0) to (3.4346207 3.4346207 3.4346207) with tilt (0 0 0)
echo none
run 0
WARNING: No fixes with time integration, atoms won't move (src/src/verlet.cpp:60)
Per MPI rank memory allocation (min/avg/max) = 3.244 | 3.244 | 3.244 Mbytes
    PotEng          Pxx           E_mol          E_coul    
-15.906115     -176732.72      0              0            
Loop time of 7.08e-07 on 1 procs for 0 steps with 2 atoms

141.2% CPU use with 1 MPI tasks x no OpenMP threads

MPI task timing breakdown:
Section |  min time  |  avg time  |  max time  |%varavg| %total
---------------------------------------------------------------
Pair    | 0          | 0          | 0          |   0.0 |  0.00
Neigh   | 0          | 0          | 0          |   0.0 |  0.00
Comm    | 0          | 0          | 0          |   0.0 |  0.00
Output  | 0          | 0          | 0          |   0.0 |  0.00
Modify  | 0          | 0          | 0          |   0.0 |  0.00
Other   |            | 7.08e-07   |            |       |100.00

Nlocal:              2 ave           2 max           2 min
Histogram: 1 0 0 0 0 0 0 0 0 0
Nghost:            339 ave         339 max         339 min
Histogram: 1 0 0 0 0 0 0 0 0 0
Neighs:            112 ave         112 max         112 min
Histogram: 1 0 0 0 0 0 0 0 0 0

Total # of neighbors = 112
Ave neighs/atom = 56
Neighbor list builds = 0
Dangerous builds = 0
set atom * x 0.0 y 0.0 z 0.0
Setting atom values ...
  2 settings made for x
  2 settings made for y
  2 settings made for z
change_box all     x final 0 3.467645902921424 y final 0 3.467645902921424 z final 0 3.467645902921424      xy final 0.0 xz final 0.0 yz final 0.0 units box
Changing box ...
  triclinic box = (0 0 0) to (3.4676459 3.4346207 3.4346207) with tilt (0 0 0)
  triclinic box = (0 0 0) to (3.4676459 3.4676459 3.4346207) with tilt (0 0 0)
  triclinic box = (0 0 0) to (3.4676459 3.4676459 3.4676459) with tilt (0 0 0)
  triclinic box = (0 0 0) to (3.4676459 3.4676459 3.4676459) with tilt (0 0 0)
  triclinic box = (0 0 0) to (3.4676459 3.4676459 3.4676459) with tilt (0 0 0)
  triclinic box = (0 0 0) to (3.4676459 3.4676459 3.4676459) with tilt (0 0 0)
echo none
run 0
WARNING: No fixes with time integration, atoms won't move (src/src/verlet.cpp:60)
Per MPI rank memory allocation (min/avg/max) = 3.244 | 3.244 | 3.244 Mbytes
    PotEng          Pxx           E_mol          E_coul    
-15.762617     -212845.13      0              0            
Loop time of 7.91e-07 on 1 procs for 0 steps with 2 atoms

0.0% CPU use with 1 MPI tasks x no OpenMP threads

MPI task timing breakdown:
Section |  min time  |  avg time  |  max time  |%varavg| %total
---------------------------------------------------------------
Pair    | 0          | 0          | 0          |   0.0 |  0.00
Neigh   | 0          | 0          | 0          |   0.0 |  0.00
Comm    | 0          | 0          | 0          |   0.0 |  0.00
Output  | 0          | 0          | 0          |   0.0 |  0.00
Modify  | 0          | 0          | 0          |   0.0 |  0.00
Other   |            | 7.91e-07   |            |       |100.00

Nlocal:              2 ave           2 max           2 min
Histogram: 1 0 0 0 0 0 0 0 0 0
Nghost:            339 ave         339 max         339 min
Histogram: 1 0 0 0 0 0 0 0 0 0
Neighs:            112 ave         112 max         112 min
Histogram: 1 0 0 0 0 0 0 0 0 0

Total # of neighbors = 112
Ave neighs/atom = 56
Neighbor list builds = 0
Dangerous builds = 0
set atom * x 0.0 y 0.0 z 0.0
Setting atom values ...
  2 settings made for x
  2 settings made for y
  2 settings made for z
change_box all     x final 0 3.5006711019968653 y final 0 3.5006711019968653 z final 0 3.5006711019968653      xy final 0.0 xz final 0.0 yz final 0.0 units box
Changing box ...
  triclinic box = (0 0 0) to (3.5006711 3.4676459 3.4676459) with tilt (0 0 0)
  triclinic box = (0 0 0) to (3.5006711 3.5006711 3.4676459) with tilt (0 0 0)
  triclinic box = (0 0 0) to (3.5006711 3.5006711 3.5006711) with tilt (0 0 0)
  triclinic box = (0 0 0) to (3.5006711 3.5006711 3.5006711) with tilt (0 0 0)
  triclinic box = (0 0 0) to (3.5006711 3.5006711 3.5006711) with tilt (0 0 0)
  triclinic box = (0 0 0) to (3.5006711 3.5006711 3.5006711) with tilt (0 0 0)
echo none
run 0
WARNING: No fixes with time integration, atoms won't move (src/src/verlet.cpp:60)
Per MPI rank memory allocation (min/avg/max) = 3.244 | 3.244 | 3.244 Mbytes
    PotEng          Pxx           E_mol          E_coul    
-15.589296     -248709.89      0              0            
Loop time of 8.33e-07 on 1 procs for 0 steps with 2 atoms

0.0% CPU use with 1 MPI tasks x no OpenMP threads

MPI task timing breakdown:
Section |  min time  |  avg time  |  max time  |%varavg| %total
---------------------------------------------------------------
Pair    | 0          | 0          | 0          |   0.0 |  0.00
Neigh   | 0          | 0          | 0          |   0.0 |  0.00
Comm    | 0          | 0          | 0          |   0.0 |  0.00
Output  | 0          | 0          | 0          |   0.0 |  0.00
Modify  | 0          | 0          | 0          |   0.0 |  0.00
Other   |            | 8.33e-07   |            |       |100.00

Nlocal:              2 ave           2 max           2 min
Histogram: 1 0 0 0 0 0 0 0 0 0
Nghost:            339 ave         339 max         339 min
Histogram: 1 0 0 0 0 0 0 0 0 0
Neighs:            112 ave         112 max         112 min
Histogram: 1 0 0 0 0 0 0 0 0 0

Total # of neighbors = 112
Ave neighs/atom = 56
Neighbor list builds = 0
Dangerous builds = 0
set atom * x 0.0 y 0.0 z 0.0
Setting atom values ...
  2 settings made for x
  2 settings made for y
  2 settings made for z
change_box all     x final 0 3.5336963010723084 y final 0 3.5336963010723084 z final 0 3.5336963010723084      xy final 0.0 xz final 0.0 yz final 0.0 units box
Changing box ...
  triclinic box = (0 0 0) to (3.5336963 3.5006711 3.5006711) with tilt (0 0 0)
  triclinic box = (0 0 0) to (3.5336963 3.5336963 3.5006711) with tilt (0 0 0)
  triclinic box = (0 0 0) to (3.5336963 3.5336963 3.5336963) with tilt (0 0 0)
  triclinic box = (0 0 0) to (3.5336963 3.5336963 3.5336963) with tilt (0 0 0)
  triclinic box = (0 0 0) to (3.5336963 3.5336963 3.5336963) with tilt (0 0 0)
  triclinic box = (0 0 0) to (3.5336963 3.5336963 3.5336963) with tilt (0 0 0)
echo none
run 0
WARNING: No fixes with time integration, atoms won't move (src/src/verlet.cpp:60)
Per MPI rank memory allocation (min/avg/max) = 3.244 | 3.244 | 3.244 Mbytes
    PotEng          Pxx           E_mol          E_coul    
-15.385533     -283737         0              0            
Loop time of 8.33e-07 on 1 procs for 0 steps with 2 atoms

120.0% CPU use with 1 MPI tasks x no OpenMP threads

MPI task timing breakdown:
Section |  min time  |  avg time  |  max time  |%varavg| %total
---------------------------------------------------------------
Pair    | 0          | 0          | 0          |   0.0 |  0.00
Neigh   | 0          | 0          | 0          |   0.0 |  0.00
Comm    | 0          | 0          | 0          |   0.0 |  0.00
Output  | 0          | 0          | 0          |   0.0 |  0.00
Modify  | 0          | 0          | 0          |   0.0 |  0.00
Other   |            | 8.33e-07   |            |       |100.00

Nlocal:              2 ave           2 max           2 min
Histogram: 1 0 0 0 0 0 0 0 0 0
Nghost:            339 ave         339 max         339 min
Histogram: 1 0 0 0 0 0 0 0 0 0
Neighs:            112 ave         112 max         112 min
Histogram: 1 0 0 0 0 0 0 0 0 0

Total # of neighbors = 112
Ave neighs/atom = 56
Neighbor list builds = 0
Dangerous builds = 0
set atom * x 0.0 y 0.0 z 0.0
Setting atom values ...
  2 settings made for x
  2 settings made for y
  2 settings made for z
change_box all     x final 0 3.5667215001477497 y final 0 3.5667215001477497 z final 0 3.5667215001477497      xy final 0.0 xz final 0.0 yz final 0.0 units box
Changing box ...
  triclinic box = (0 0 0) to (3.5667215 3.5336963 3.5336963) with tilt (0 0 0)
  triclinic box = (0 0 0) to (3.5667215 3.5667215 3.5336963) with tilt (0 0 0)
  triclinic box = (0 0 0) to (3.5667215 3.5667215 3.5667215) with tilt (0 0 0)
  triclinic box = (0 0 0) to (3.5667215 3.5667215 3.5667215) with tilt (0 0 0)
  triclinic box = (0 0 0) to (3.5667215 3.5667215 3.5667215) with tilt (0 0 0)
  triclinic box = (0 0 0) to (3.5667215 3.5667215 3.5667215) with tilt (0 0 0)
echo none
run 0
WARNING: No fixes with time integration, atoms won't move (src/src/verlet.cpp:60)
Per MPI rank memory allocation (min/avg/max) = 3.244 | 3.244 | 3.244 Mbytes
    PotEng          Pxx           E_mol          E_coul    
-15.151061     -317612.3       0              0            
Loop time of 1e-06 on 1 procs for 0 steps with 2 atoms

200.0% CPU use with 1 MPI tasks x no OpenMP threads

MPI task timing breakdown:
Section |  min time  |  avg time  |  max time  |%varavg| %total
---------------------------------------------------------------
Pair    | 0          | 0          | 0          |   0.0 |  0.00
Neigh   | 0          | 0          | 0          |   0.0 |  0.00
Comm    | 0          | 0          | 0          |   0.0 |  0.00
Output  | 0          | 0          | 0          |   0.0 |  0.00
Modify  | 0          | 0          | 0          |   0.0 |  0.00
Other   |            | 1e-06      |            |       |100.00

Nlocal:              2 ave           2 max           2 min
Histogram: 1 0 0 0 0 0 0 0 0 0
Nghost:            339 ave         339 max         339 min
Histogram: 1 0 0 0 0 0 0 0 0 0
Neighs:            112 ave         112 max         112 min
Histogram: 1 0 0 0 0 0 0 0 0 0

Total # of neighbors = 112
Ave neighs/atom = 56
Neighbor list builds = 0
Dangerous builds = 0
set atom * x 0.0 y 0.0 z 0.0
Setting atom values ...
  2 settings made for x
  2 settings made for y
  2 settings made for z
change_box all     x final 0 3.5997466992231923 y final 0 3.5997466992231923 z final 0 3.5997466992231923      xy final 0.0 xz final 0.0 yz final 0.0 units box
Changing box ...
  triclinic box = (0 0 0) to (3.5997467 3.5667215 3.5667215) with tilt (0 0 0)
  triclinic box = (0 0 0) to (3.5997467 3.5997467 3.5667215) with tilt (0 0 0)
  triclinic box = (0 0 0) to (3.5997467 3.5997467 3.5997467) with tilt (0 0 0)
  triclinic box = (0 0 0) to (3.5997467 3.5997467 3.5997467) with tilt (0 0 0)
  triclinic box = (0 0 0) to (3.5997467 3.5997467 3.5997467) with tilt (0 0 0)
  triclinic box = (0 0 0) to (3.5997467 3.5997467 3.5997467) with tilt (0 0 0)
echo none
run 0
WARNING: No fixes with time integration, atoms won't move (src/src/verlet.cpp:60)
Per MPI rank memory allocation (min/avg/max) = 3.244 | 3.244 | 3.244 Mbytes
    PotEng          Pxx           E_mol          E_coul    
-14.885833     -350148.1       0              0            
Loop time of 9.16e-07 on 1 procs for 0 steps with 2 atoms

0.0% CPU use with 1 MPI tasks x no OpenMP threads

MPI task timing breakdown:
Section |  min time  |  avg time  |  max time  |%varavg| %total
---------------------------------------------------------------
Pair    | 0          | 0          | 0          |   0.0 |  0.00
Neigh   | 0          | 0          | 0          |   0.0 |  0.00
Comm    | 0          | 0          | 0          |   0.0 |  0.00
Output  | 0          | 0          | 0          |   0.0 |  0.00
Modify  | 0          | 0          | 0          |   0.0 |  0.00
Other   |            | 9.16e-07   |            |       |100.00

Nlocal:              2 ave           2 max           2 min
Histogram: 1 0 0 0 0 0 0 0 0 0
Nghost:            339 ave         339 max         339 min
Histogram: 1 0 0 0 0 0 0 0 0 0
Neighs:            112 ave         112 max         112 min
Histogram: 1 0 0 0 0 0 0 0 0 0

Total # of neighbors = 112
Ave neighs/atom = 56
Neighbor list builds = 0
Dangerous builds = 0
set atom * x 0.0 y 0.0 z 0.0
Setting atom values ...
  2 settings made for x
  2 settings made for y
  2 settings made for z
change_box all     x final 0 3.632771898298634 y final 0 3.632771898298634 z final 0 3.632771898298634      xy final 0.0 xz final 0.0 yz final 0.0 units box
Changing box ...
  triclinic box = (0 0 0) to (3.6327719 3.5997467 3.5997467) with tilt (0 0 0)
  triclinic box = (0 0 0) to (3.6327719 3.6327719 3.5997467) with tilt (0 0 0)
  triclinic box = (0 0 0) to (3.6327719 3.6327719 3.6327719) with tilt (0 0 0)
  triclinic box = (0 0 0) to (3.6327719 3.6327719 3.6327719) with tilt (0 0 0)
  triclinic box = (0 0 0) to (3.6327719 3.6327719 3.6327719) with tilt (0 0 0)
  triclinic box = (0 0 0) to (3.6327719 3.6327719 3.6327719) with tilt (0 0 0)
echo none
run 0
WARNING: No fixes with time integration, atoms won't move (src/src/verlet.cpp:60)
Per MPI rank memory allocation (min/avg/max) = 3.244 | 3.244 | 3.244 Mbytes
    PotEng          Pxx           E_mol          E_coul    
-14.589991     -381141.99      0              0            
Loop time of 7.08e-07 on 1 procs for 0 steps with 2 atoms

282.5% CPU use with 1 MPI tasks x no OpenMP threads

MPI task timing breakdown:
Section |  min time  |  avg time  |  max time  |%varavg| %total
---------------------------------------------------------------
Pair    | 0          | 0          | 0          |   0.0 |  0.00
Neigh   | 0          | 0          | 0          |   0.0 |  0.00
Comm    | 0          | 0          | 0          |   0.0 |  0.00
Output  | 0          | 0          | 0          |   0.0 |  0.00
Modify  | 0          | 0          | 0          |   0.0 |  0.00
Other   |            | 7.08e-07   |            |       |100.00

Nlocal:              2 ave           2 max           2 min
Histogram: 1 0 0 0 0 0 0 0 0 0
Nghost:            339 ave         339 max         339 min
Histogram: 1 0 0 0 0 0 0 0 0 0
Neighs:            112 ave         112 max         112 min
Histogram: 1 0 0 0 0 0 0 0 0 0

Total # of neighbors = 112
Ave neighs/atom = 56
Neighbor list builds = 0
Dangerous builds = 0
set atom * x 0.0 y 0.0 z 0.0
Setting atom values ...
  2 settings made for x
  2 settings made for y
  2 settings made for z
change_box all     x final 0 9.907559722632637 y final 0 9.907559722632637 z final 0 9.907559722632637      xy final 0.0 xz final 0.0 yz final 0.0 units box
Changing box ...
  triclinic box = (0 0 0) to (9.9075597 3.6327719 3.6327719) with tilt (0 0 0)
  triclinic box = (0 0 0) to (9.9075597 9.9075597 3.6327719) with tilt (0 0 0)
  triclinic box = (0 0 0) to (9.9075597 9.9075597 9.9075597) with tilt (0 0 0)
  triclinic box = (0 0 0) to (9.9075597 9.9075597 9.9075597) with tilt (0 0 0)
  triclinic box = (0 0 0) to (9.9075597 9.9075597 9.9075597) with tilt (0 0 0)
  triclinic box = (0 0 0) to (9.9075597 9.9075597 9.9075597) with tilt (0 0 0)
echo none
Created 52 atoms
  using lattice units in triclinic box = (0 0 0) to (9.9075597 9.9075597 9.9075597) with tilt (0 0 0)
  create_atoms CPU = 0.000 seconds
Setting atom values ...
  1 settings made for type
Setting atom values ...
  1 settings made for type
Setting atom values ...
  1 settings made for type
Setting atom values ...
  1 settings made for type
Setting atom values ...
  1 settings made for type
Setting atom values ...
  1 settings made for type
Setting atom values ...
  1 settings made for type
Setting atom values ...
  1 settings made for type
Setting atom values ...
  1 settings made for type
Setting atom values ...
  1 settings made for type
Setting atom values ...
  1 settings made for type
Setting atom values ...
  1 settings made for type
Setting atom values ...
  1 settings made for type
Setting atom values ...
  1 settings made for type
Setting atom values ...
  1 settings made for type
Setting atom values ...
  1 settings made for type
Setting atom values ...
  1 settings made for type
Setting atom values ...
  1 settings made for type
Setting atom values ...
  1 settings made for type
Setting atom values ...
  1 settings made for type
Setting atom values ...
  1 settings made for type
Setting atom values ...
  1 settings made for type
Setting atom values ...
  1 settings made for type
Setting atom values ...
  1 settings made for type
Setting atom values ...
  1 settings made for type
Setting atom values ...
  1 settings made for type
Setting atom values ...
  1 settings made for type
Setting atom values ...
  1 settings made for type
Setting atom values ...
  1 settings made for type
Setting atom values ...
  1 settings made for type
Setting atom values ...
  1 settings made for type
Setting atom values ...
  1 settings made for type
Setting atom values ...
  1 settings made for type
Setting atom values ...
  1 settings made for type
Setting atom values ...
  1 settings made for type
Setting atom values ...
  1 settings made for type
Setting atom values ...
  1 settings made for type
Setting atom values ...
  1 settings made for type
Setting atom values ...
  1 settings made for type
Setting atom values ...
  1 settings made for type
Setting atom values ...
  1 settings made for type
Setting atom values ...
  1 settings made for type
Setting atom values ...
  1 settings made for type
Setting atom values ...
  1 settings made for type
Setting atom values ...
  1 settings made for type
Setting atom values ...
  1 settings made for type
Setting atom values ...
  1 settings made for type
Setting atom values ...
  1 settings made for type
Setting atom values ...
  1 settings made for type
Setting atom values ...
  1 settings made for type
Setting atom values ...
  1 settings made for type
Setting atom values ...
  1 settings made for type
run 0
WARNING: No fixes with time integration, atoms won't move (src/src/verlet.cpp:60)
Per MPI rank memory allocation (min/avg/max) = 3.251 | 3.251 | 3.251 Mbytes
    PotEng          Pxx           E_mol          E_coul    
-436.86008      31.792557      0              0            
Loop time of 8.75e-07 on 1 procs for 0 steps with 54 atoms

228.6% CPU use with 1 MPI tasks x no OpenMP threads

MPI task timing breakdown:
Section |  min time  |  avg time  |  max time  |%varavg| %total
---------------------------------------------------------------
Pair    | 0          | 0          | 0          |   0.0 |  0.00
Neigh   | 0          | 0          | 0          |   0.0 |  0.00
Comm    | 0          | 0          | 0          |   0.0 |  0.00
Output  | 0          | 0          | 0          |   0.0 |  0.00
Modify  | 0          | 0          | 0          |   0.0 |  0.00
Other   |            | 8.75e-07   |            |       |100.00

Nlocal:             54 ave          54 max          54 min
Histogram: 1 0 0 0 0 0 0 0 0 0
Nghost:           1187 ave        1187 max        1187 min
Histogram: 1 0 0 0 0 0 0 0 0 0
Neighs:           3672 ave        3672 max        3672 min
Histogram: 1 0 0 0 0 0 0 0 0 0

Total # of neighbors = 3672
Ave neighs/atom = 68
Neighbor list builds = 0
Dangerous builds = 0
set atom * x 0.0 y 0.0 z 0.0
Setting atom values ...
  54 settings made for x
  54 settings made for y
  54 settings made for z
change_box all     x final 0 9.709408528179985 y final 0 9.907559722632637 z final 0 9.907559722632637      xy final 0.0 xz final 0.0 yz final 0.0 units box
Changing box ...
  triclinic box = (0 0 0) to (9.7094085 9.9075597 9.9075597) with tilt (0 0 0)
  triclinic box = (0 0 0) to (9.7094085 9.9075597 9.9075597) with tilt (0 0 0)
  triclinic box = (0 0 0) to (9.7094085 9.9075597 9.9075597) with tilt (0 0 0)
  triclinic box = (0 0 0) to (9.7094085 9.9075597 9.9075597) with tilt (0 0 0)
  triclinic box = (0 0 0) to (9.7094085 9.9075597 9.9075597) with tilt (0 0 0)
  triclinic box = (0 0 0) to (9.7094085 9.9075597 9.9075597) with tilt (0 0 0)
echo none
run 0
WARNING: No fixes with time integration, atoms won't move (src/src/verlet.cpp:60)
Per MPI rank memory allocation (min/avg/max) = 3.251 | 3.251 | 3.251 Mbytes
    PotEng          Pxx           E_mol          E_coul    
-436.5445       51630.553      0              0            
Loop time of 1.209e-06 on 1 procs for 0 steps with 54 atoms

0.0% CPU use with 1 MPI tasks x no OpenMP threads

MPI task timing breakdown:
Section |  min time  |  avg time  |  max time  |%varavg| %total
---------------------------------------------------------------
Pair    | 0          | 0          | 0          |   0.0 |  0.00
Neigh   | 0          | 0          | 0          |   0.0 |  0.00
Comm    | 0          | 0          | 0          |   0.0 |  0.00
Output  | 0          | 0          | 0          |   0.0 |  0.00
Modify  | 0          | 0          | 0          |   0.0 |  0.00
Other   |            | 1.209e-06  |            |       |100.00

Nlocal:             54 ave          54 max          54 min
Histogram: 1 0 0 0 0 0 0 0 0 0
Nghost:           1187 ave        1187 max        1187 min
Histogram: 1 0 0 0 0 0 0 0 0 0
Neighs:           3672 ave        3672 max        3672 min
Histogram: 1 0 0 0 0 0 0 0 0 0

Total # of neighbors = 3672
Ave neighs/atom = 68
Neighbor list builds = 0
Dangerous builds = 0
set atom * x 0.0 y 0.0 z 0.0
Setting atom values ...
  54 settings made for x
  54 settings made for y
  54 settings made for z
change_box all     x final 0 9.808484125406311 y final 0 9.907559722632637 z final 0 9.907559722632637      xy final 0.0 xz final 0.0 yz final 0.0 units box
Changing box ...
  triclinic box = (0 0 0) to (9.8084841 9.9075597 9.9075597) with tilt (0 0 0)
  triclinic box = (0 0 0) to (9.8084841 9.9075597 9.9075597) with tilt (0 0 0)
  triclinic box = (0 0 0) to (9.8084841 9.9075597 9.9075597) with tilt (0 0 0)
  triclinic box = (0 0 0) to (9.8084841 9.9075597 9.9075597) with tilt (0 0 0)
  triclinic box = (0 0 0) to (9.8084841 9.9075597 9.9075597) with tilt (0 0 0)
  triclinic box = (0 0 0) to (9.8084841 9.9075597 9.9075597) with tilt (0 0 0)
echo none
run 0
WARNING: No fixes with time integration, atoms won't move (src/src/verlet.cpp:60)
Per MPI rank memory allocation (min/avg/max) = 3.251 | 3.251 | 3.251 Mbytes
    PotEng          Pxx           E_mol          E_coul    
-436.78061      26078.605      0              0            
Loop time of 9.59e-07 on 1 procs for 0 steps with 54 atoms

104.3% CPU use with 1 MPI tasks x no OpenMP threads

MPI task timing breakdown:
Section |  min time  |  avg time  |  max time  |%varavg| %total
---------------------------------------------------------------
Pair    | 0          | 0          | 0          |   0.0 |  0.00
Neigh   | 0          | 0          | 0          |   0.0 |  0.00
Comm    | 0          | 0          | 0          |   0.0 |  0.00
Output  | 0          | 0          | 0          |   0.0 |  0.00
Modify  | 0          | 0          | 0          |   0.0 |  0.00
Other   |            | 9.59e-07   |            |       |100.00

Nlocal:             54 ave          54 max          54 min
Histogram: 1 0 0 0 0 0 0 0 0 0
Nghost:           1187 ave        1187 max        1187 min
Histogram: 1 0 0 0 0 0 0 0 0 0
Neighs:           3672 ave        3672 max        3672 min
Histogram: 1 0 0 0 0 0 0 0 0 0

Total # of neighbors = 3672
Ave neighs/atom = 68
Neighbor list builds = 0
Dangerous builds = 0
set atom * x 0.0 y 0.0 z 0.0
Setting atom values ...
  54 settings made for x
  54 settings made for y
  54 settings made for z
change_box all     x final 0 9.907559722632637 y final 0 9.907559722632637 z final 0 9.907559722632637      xy final 0.0 xz final 0.0 yz final 0.0 units box
Changing box ...
  triclinic box = (0 0 0) to (9.9075597 9.9075597 9.9075597) with tilt (0 0 0)
  triclinic box = (0 0 0) to (9.9075597 9.9075597 9.9075597) with tilt (0 0 0)
  triclinic box = (0 0 0) to (9.9075597 9.9075597 9.9075597) with tilt (0 0 0)
  triclinic box = (0 0 0) to (9.9075597 9.9075597 9.9075597) with tilt (0 0 0)
  triclinic box = (0 0 0) to (9.9075597 9.9075597 9.9075597) with tilt (0 0 0)
  triclinic box = (0 0 0) to (9.9075597 9.9075597 9.9075597) with tilt (0 0 0)
echo none
run 0
WARNING: No fixes with time integration, atoms won't move (src/src/verlet.cpp:60)
Per MPI rank memory allocation (min/avg/max) = 3.251 | 3.251 | 3.251 Mbytes
    PotEng          Pxx           E_mol          E_coul    
-436.86008      31.792557      0              0            
Loop time of 9.17e-07 on 1 procs for 0 steps with 54 atoms

109.1% CPU use with 1 MPI tasks x no OpenMP threads

MPI task timing breakdown:
Section |  min time  |  avg time  |  max time  |%varavg| %total
---------------------------------------------------------------
Pair    | 0          | 0          | 0          |   0.0 |  0.00
Neigh   | 0          | 0          | 0          |   0.0 |  0.00
Comm    | 0          | 0          | 0          |   0.0 |  0.00
Output  | 0          | 0          | 0          |   0.0 |  0.00
Modify  | 0          | 0          | 0          |   0.0 |  0.00
Other   |            | 9.17e-07   |            |       |100.00

Nlocal:             54 ave          54 max          54 min
Histogram: 1 0 0 0 0 0 0 0 0 0
Nghost:           1187 ave        1187 max        1187 min
Histogram: 1 0 0 0 0 0 0 0 0 0
Neighs:           3672 ave        3672 max        3672 min
Histogram: 1 0 0 0 0 0 0 0 0 0

Total # of neighbors = 3672
Ave neighs/atom = 68
Neighbor list builds = 0
Dangerous builds = 0
set atom * x 0.0 y 0.0 z 0.0
Setting atom values ...
  54 settings made for x
  54 settings made for y
  54 settings made for z
change_box all     x final 0 10.006635319858963 y final 0 9.907559722632637 z final 0 9.907559722632637      xy final 0.0 xz final 0.0 yz final 0.0 units box
Changing box ...
  triclinic box = (0 0 0) to (10.006635 9.9075597 9.9075597) with tilt (0 0 0)
  triclinic box = (0 0 0) to (10.006635 9.9075597 9.9075597) with tilt (0 0 0)
  triclinic box = (0 0 0) to (10.006635 9.9075597 9.9075597) with tilt (0 0 0)
  triclinic box = (0 0 0) to (10.006635 9.9075597 9.9075597) with tilt (0 0 0)
  triclinic box = (0 0 0) to (10.006635 9.9075597 9.9075597) with tilt (0 0 0)
  triclinic box = (0 0 0) to (10.006635 9.9075597 9.9075597) with tilt (0 0 0)
echo none
run 0
WARNING: No fixes with time integration, atoms won't move (src/src/verlet.cpp:60)
Per MPI rank memory allocation (min/avg/max) = 3.251 | 3.251 | 3.251 Mbytes
    PotEng          Pxx           E_mol          E_coul    
-436.78028     -26359.408      0              0            
Loop time of 2.917e-06 on 1 procs for 0 steps with 54 atoms

0.0% CPU use with 1 MPI tasks x no OpenMP threads

MPI task timing breakdown:
Section |  min time  |  avg time  |  max time  |%varavg| %total
---------------------------------------------------------------
Pair    | 0          | 0          | 0          |   0.0 |  0.00
Neigh   | 0          | 0          | 0          |   0.0 |  0.00
Comm    | 0          | 0          | 0          |   0.0 |  0.00
Output  | 0          | 0          | 0          |   0.0 |  0.00
Modify  | 0          | 0          | 0          |   0.0 |  0.00
Other   |            | 2.917e-06  |            |       |100.00

Nlocal:             54 ave          54 max          54 min
Histogram: 1 0 0 0 0 0 0 0 0 0
Nghost:           1187 ave        1187 max        1187 min
Histogram: 1 0 0 0 0 0 0 0 0 0
Neighs:           3672 ave        3672 max        3672 min
Histogram: 1 0 0 0 0 0 0 0 0 0

Total # of neighbors = 3672
Ave neighs/atom = 68
Neighbor list builds = 0
Dangerous builds = 0
set atom * x 0.0 y 0.0 z 0.0
Setting atom values ...
  54 settings made for x
  54 settings made for y
  54 settings made for z
change_box all     x final 0 10.10571091708529 y final 0 9.907559722632637 z final 0 9.907559722632637      xy final 0.0 xz final 0.0 yz final 0.0 units box
Changing box ...
  triclinic box = (0 0 0) to (10.105711 9.9075597 9.9075597) with tilt (0 0 0)
  triclinic box = (0 0 0) to (10.105711 9.9075597 9.9075597) with tilt (0 0 0)
  triclinic box = (0 0 0) to (10.105711 9.9075597 9.9075597) with tilt (0 0 0)
  triclinic box = (0 0 0) to (10.105711 9.9075597 9.9075597) with tilt (0 0 0)
  triclinic box = (0 0 0) to (10.105711 9.9075597 9.9075597) with tilt (0 0 0)
  triclinic box = (0 0 0) to (10.105711 9.9075597 9.9075597) with tilt (0 0 0)
echo none
run 0
WARNING: No fixes with time integration, atoms won't move (src/src/verlet.cpp:60)
Per MPI rank memory allocation (min/avg/max) = 3.251 | 3.251 | 3.251 Mbytes
    PotEng          Pxx           E_mol          E_coul    
-436.54001     -52782.694      0              0            
Loop time of 8.34e-07 on 1 procs for 0 steps with 54 atoms

119.9% CPU use with 1 MPI tasks x no OpenMP threads

MPI task timing breakdown:
Section |  min time  |  avg time  |  max time  |%varavg| %total
---------------------------------------------------------------
Pair    | 0          | 0          | 0          |   0.0 |  0.00
Neigh   | 0          | 0          | 0          |   0.0 |  0.00
Comm    | 0          | 0          | 0          |   0.0 |  0.00
Output  | 0          | 0          | 0          |   0.0 |  0.00
Modify  | 0          | 0          | 0          |   0.0 |  0.00
Other   |            | 8.34e-07   |            |       |100.00

Nlocal:             54 ave          54 max          54 min
Histogram: 1 0 0 0 0 0 0 0 0 0
Nghost:           1025 ave        1025 max        1025 min
Histogram: 1 0 0 0 0 0 0 0 0 0
Neighs:           3672 ave        3672 max        3672 min
Histogram: 1 0 0 0 0 0 0 0 0 0

Total # of neighbors = 3672
Ave neighs/atom = 68
Neighbor list builds = 0
Dangerous builds = 0
set atom * x 0.0 y 0.0 z 0.0
Setting atom values ...
  54 settings made for x
  54 settings made for y
  54 settings made for z
change_box all     x final 0 9.907559722632637 y final 0 9.907579537732268 z final 0 9.907539907572637      xy final 0.0 xz final 0.0 yz final 0.019815079815145274 units box
Changing box ...
  triclinic box = (0 0 0) to (9.9075597 9.9075597 9.9075597) with tilt (0 0 0)
  triclinic box = (0 0 0) to (9.9075597 9.9075795 9.9075597) with tilt (0 0 0)
  triclinic box = (0 0 0) to (9.9075597 9.9075795 9.9075399) with tilt (0 0 0)
  triclinic box = (0 0 0) to (9.9075597 9.9075795 9.9075399) with tilt (0 0 0)
  triclinic box = (0 0 0) to (9.9075597 9.9075795 9.9075399) with tilt (0 0 0)
  triclinic box = (0 0 0) to (9.9075597 9.9075795 9.9075399) with tilt (0 0 0.01981508)
echo none
run 0
WARNING: No fixes with time integration, atoms won't move (src/src/verlet.cpp:60)
Per MPI rank memory allocation (min/avg/max) = 3.251 | 3.251 | 3.251 Mbytes
    PotEng          Pxx           E_mol          E_coul    
-436.85908      40.049771      0              0            
Loop time of 1.166e-06 on 1 procs for 0 steps with 54 atoms

85.8% CPU use with 1 MPI tasks x no OpenMP threads

MPI task timing breakdown:
Section |  min time  |  avg time  |  max time  |%varavg| %total
---------------------------------------------------------------
Pair    | 0          | 0          | 0          |   0.0 |  0.00
Neigh   | 0          | 0          | 0          |   0.0 |  0.00
Comm    | 0          | 0          | 0          |   0.0 |  0.00
Output  | 0          | 0          | 0          |   0.0 |  0.00
Modify  | 0          | 0          | 0          |   0.0 |  0.00
Other   |            | 1.166e-06  |            |       |100.00

Nlocal:             54 ave          54 max          54 min
Histogram: 1 0 0 0 0 0 0 0 0 0
Nghost:           1187 ave        1187 max        1187 min
Histogram: 1 0 0 0 0 0 0 0 0 0
Neighs:           3672 ave        3672 max        3672 min
Histogram: 1 0 0 0 0 0 0 0 0 0

Total # of neighbors = 3672
Ave neighs/atom = 68
Neighbor list builds = 0
Dangerous builds = 0
set atom * x 0.0 y 0.0 z 0.0
Setting atom values ...
  54 settings made for x
  54 settings made for y
  54 settings made for z
change_box all     x final 0 9.907559722632637 y final 0 9.907769017621122 z final 0 9.907350432065368      xy final 0.0 xz final 0.0 yz final 0.0643977778084249 units box
Changing box ...
  triclinic box = (0 0 0) to (9.9075597 9.9075795 9.9075399) with tilt (0 0 0.01981508)
  triclinic box = (0 0 0) to (9.9075597 9.907769 9.9075399) with tilt (0 0 0.01981508)
  triclinic box = (0 0 0) to (9.9075597 9.907769 9.9073504) with tilt (0 0 0.01981508)
  triclinic box = (0 0 0) to (9.9075597 9.907769 9.9073504) with tilt (0 0 0.01981508)
  triclinic box = (0 0 0) to (9.9075597 9.907769 9.9073504) with tilt (0 0 0.01981508)
  triclinic box = (0 0 0) to (9.9075597 9.907769 9.9073504) with tilt (0 0 0.064397778)
echo none
run 0
WARNING: No fixes with time integration, atoms won't move (src/src/verlet.cpp:60)
Per MPI rank memory allocation (min/avg/max) = 3.251 | 3.251 | 3.251 Mbytes
    PotEng          Pxx           E_mol          E_coul    
-436.84952      118.99914      0              0            
Loop time of 9.17e-07 on 1 procs for 0 steps with 54 atoms

109.1% CPU use with 1 MPI tasks x no OpenMP threads

MPI task timing breakdown:
Section |  min time  |  avg time  |  max time  |%varavg| %total
---------------------------------------------------------------
Pair    | 0          | 0          | 0          |   0.0 |  0.00
Neigh   | 0          | 0          | 0          |   0.0 |  0.00
Comm    | 0          | 0          | 0          |   0.0 |  0.00
Output  | 0          | 0          | 0          |   0.0 |  0.00
Modify  | 0          | 0          | 0          |   0.0 |  0.00
Other   |            | 9.17e-07   |            |       |100.00

Nlocal:             54 ave          54 max          54 min
Histogram: 1 0 0 0 0 0 0 0 0 0
Nghost:           1187 ave        1187 max        1187 min
Histogram: 1 0 0 0 0 0 0 0 0 0
Neighs:           3672 ave        3672 max        3672 min
Histogram: 1 0 0 0 0 0 0 0 0 0

Total # of neighbors = 3672
Ave neighs/atom = 68
Neighbor list builds = 0
Dangerous builds = 0
set atom * x 0.0 y 0.0 z 0.0
Setting atom values ...
  54 settings made for x
  54 settings made for y
  54 settings made for z
change_box all     x final 0 9.907559722632637 y final 0 9.90815911186488 z final 0 9.906960369660153      xy final 0.0 xz final 0.0 yz final 0.10897656406626167 units box
Changing box ...
  triclinic box = (0 0 0) to (9.9075597 9.907769 9.9073504) with tilt (0 0 0.064397778)
  triclinic box = (0 0 0) to (9.9075597 9.9081591 9.9073504) with tilt (0 0 0.064397778)
  triclinic box = (0 0 0) to (9.9075597 9.9081591 9.9069604) with tilt (0 0 0.064397778)
  triclinic box = (0 0 0) to (9.9075597 9.9081591 9.9069604) with tilt (0 0 0.064397778)
  triclinic box = (0 0 0) to (9.9075597 9.9081591 9.9069604) with tilt (0 0 0.064397778)
  triclinic box = (0 0 0) to (9.9075597 9.9081591 9.9069604) with tilt (0 0 0.10897656)
echo none
run 0
WARNING: No fixes with time integration, atoms won't move (src/src/verlet.cpp:60)
Per MPI rank memory allocation (min/avg/max) = 3.251 | 3.251 | 3.251 Mbytes
    PotEng          Pxx           E_mol          E_coul    
-436.82985      281.53222      0              0            
Loop time of 8.33e-07 on 1 procs for 0 steps with 54 atoms

120.0% CPU use with 1 MPI tasks x no OpenMP threads

MPI task timing breakdown:
Section |  min time  |  avg time  |  max time  |%varavg| %total
---------------------------------------------------------------
Pair    | 0          | 0          | 0          |   0.0 |  0.00
Neigh   | 0          | 0          | 0          |   0.0 |  0.00
Comm    | 0          | 0          | 0          |   0.0 |  0.00
Output  | 0          | 0          | 0          |   0.0 |  0.00
Modify  | 0          | 0          | 0          |   0.0 |  0.00
Other   |            | 8.33e-07   |            |       |100.00

Nlocal:             54 ave          54 max          54 min
Histogram: 1 0 0 0 0 0 0 0 0 0
Nghost:           1187 ave        1187 max        1187 min
Histogram: 1 0 0 0 0 0 0 0 0 0
Neighs:           3672 ave        3672 max        3672 min
Histogram: 1 0 0 0 0 0 0 0 0 0

Total # of neighbors = 3672
Ave neighs/atom = 68
Neighbor list builds = 0
Dangerous builds = 0
set atom * x 0.0 y 0.0 z 0.0
Setting atom values ...
  54 settings made for x
  54 settings made for y
  54 settings made for z
change_box all     x final 0 9.907559722632637 y final 0 9.908749796769783 z final 0 9.906369791427393      xy final 0.0 xz final 0.0 yz final 0.1535487317671246 units box
Changing box ...
  triclinic box = (0 0 0) to (9.9075597 9.9081591 9.9069604) with tilt (0 0 0.10897656)
  triclinic box = (0 0 0) to (9.9075597 9.9087498 9.9069604) with tilt (0 0 0.10897656)
  triclinic box = (0 0 0) to (9.9075597 9.9087498 9.9063698) with tilt (0 0 0.10897656)
  triclinic box = (0 0 0) to (9.9075597 9.9087498 9.9063698) with tilt (0 0 0.10897656)
  triclinic box = (0 0 0) to (9.9075597 9.9087498 9.9063698) with tilt (0 0 0.10897656)
  triclinic box = (0 0 0) to (9.9075597 9.9087498 9.9063698) with tilt (0 0 0.15354873)
echo none
run 0
WARNING: No fixes with time integration, atoms won't move (src/src/verlet.cpp:60)
Per MPI rank memory allocation (min/avg/max) = 3.251 | 3.251 | 3.251 Mbytes
    PotEng          Pxx           E_mol          E_coul    
-436.80005      527.62415      0              0            
Loop time of 8.75e-07 on 1 procs for 0 steps with 54 atoms

114.3% CPU use with 1 MPI tasks x no OpenMP threads

MPI task timing breakdown:
Section |  min time  |  avg time  |  max time  |%varavg| %total
---------------------------------------------------------------
Pair    | 0          | 0          | 0          |   0.0 |  0.00
Neigh   | 0          | 0          | 0          |   0.0 |  0.00
Comm    | 0          | 0          | 0          |   0.0 |  0.00
Output  | 0          | 0          | 0          |   0.0 |  0.00
Modify  | 0          | 0          | 0          |   0.0 |  0.00
Other   |            | 8.75e-07   |            |       |100.00

Nlocal:             54 ave          54 max          54 min
Histogram: 1 0 0 0 0 0 0 0 0 0
Nghost:           1187 ave        1187 max        1187 min
Histogram: 1 0 0 0 0 0 0 0 0 0
Neighs:           3672 ave        3672 max        3672 min
Histogram: 1 0 0 0 0 0 0 0 0 0

Total # of neighbors = 3672
Ave neighs/atom = 68
Neighbor list builds = 0
Dangerous builds = 0
set atom * x 0.0 y 0.0 z 0.0
Setting atom values ...
  54 settings made for x
  54 settings made for y
  54 settings made for z
change_box all     x final 0 9.907559722632637 y final 0 9.90954103646559 z final 0 9.905578804943612      xy final 0.0 xz final 0.0 yz final 0.19811157609887226 units box
Changing box ...
  triclinic box = (0 0 0) to (9.9075597 9.9087498 9.9063698) with tilt (0 0 0.15354873)
  triclinic box = (0 0 0) to (9.9075597 9.909541 9.9063698) with tilt (0 0 0.15354873)
  triclinic box = (0 0 0) to (9.9075597 9.909541 9.9055788) with tilt (0 0 0.15354873)
  triclinic box = (0 0 0) to (9.9075597 9.909541 9.9055788) with tilt (0 0 0.15354873)
  triclinic box = (0 0 0) to (9.9075597 9.909541 9.9055788) with tilt (0 0 0.15354873)
  triclinic box = (0 0 0) to (9.9075597 9.909541 9.9055788) with tilt (0 0 0.19811158)
echo none
run 0
WARNING: No fixes with time integration, atoms won't move (src/src/verlet.cpp:60)
Per MPI rank memory allocation (min/avg/max) = 3.251 | 3.251 | 3.251 Mbytes
    PotEng          Pxx           E_mol          E_coul    
-436.76015      857.24009      0              0            
Loop time of 8.75e-07 on 1 procs for 0 steps with 54 atoms

0.0% CPU use with 1 MPI tasks x no OpenMP threads

MPI task timing breakdown:
Section |  min time  |  avg time  |  max time  |%varavg| %total
---------------------------------------------------------------
Pair    | 0          | 0          | 0          |   0.0 |  0.00
Neigh   | 0          | 0          | 0          |   0.0 |  0.00
Comm    | 0          | 0          | 0          |   0.0 |  0.00
Output  | 0          | 0          | 0          |   0.0 |  0.00
Modify  | 0          | 0          | 0          |   0.0 |  0.00
Other   |            | 8.75e-07   |            |       |100.00

Nlocal:             54 ave          54 max          54 min
Histogram: 1 0 0 0 0 0 0 0 0 0
Nghost:           1187 ave        1187 max        1187 min
Histogram: 1 0 0 0 0 0 0 0 0 0
Neighs:           3672 ave        3672 max        3672 min
Histogram: 1 0 0 0 0 0 0 0 0 0

Total # of neighbors = 3672
Ave neighs/atom = 68
Neighbor list builds = 0
Dangerous builds = 0
set atom * x 0.0 y 0.0 z 0.0
Setting atom values ...
  54 settings made for x
  54 settings made for y
  54 settings made for z
change_box all     x final 0 9.907559722632637 y final 0 9.907559722632637 z final 0 9.907559722632637      xy final 0.0 xz final 0.0 yz final 0.0 units box
Changing box ...
  triclinic box = (0 0 0) to (9.9075597 9.909541 9.9055788) with tilt (0 0 0.19811158)
  triclinic box = (0 0 0) to (9.9075597 9.9075597 9.9055788) with tilt (0 0 0.19811158)
  triclinic box = (0 0 0) to (9.9075597 9.9075597 9.9075597) with tilt (0 0 0.19811158)
  triclinic box = (0 0 0) to (9.9075597 9.9075597 9.9075597) with tilt (0 0 0.19811158)
  triclinic box = (0 0 0) to (9.9075597 9.9075597 9.9075597) with tilt (0 0 0.19811158)
  triclinic box = (0 0 0) to (9.9075597 9.9075597 9.9075597) with tilt (0 0 0)
echo none
run 0
WARNING: No fixes with time integration, atoms won't move (src/src/verlet.cpp:60)
Per MPI rank memory allocation (min/avg/max) = 3.251 | 3.251 | 3.251 Mbytes
    PotEng          Pxx           E_mol          E_coul    
-436.85962      30.452736      0              0            
Loop time of 1.458e-06 on 1 procs for 0 steps with 54 atoms

205.8% CPU use with 1 MPI tasks x no OpenMP threads

MPI task timing breakdown:
[...]
  triclinic box = (0 0 0) to (9.2475296 11.325864 31.812898) with tilt (-9.2475296 0 0)
echo none
run 0
Per MPI rank memory allocation (min/avg/max) = 3.33 | 3.33 | 3.33 Mbytes
    PotEng          Pxx           E_mol          E_coul    
-615.94604     -297.59602      0              0            
Loop time of 7.08e-07 on 1 procs for 0 steps with 80 atoms

141.2% CPU use with 1 MPI tasks x no OpenMP threads

MPI task timing breakdown:
Section |  min time  |  avg time  |  max time  |%varavg| %total
---------------------------------------------------------------
Pair    | 0          | 0          | 0          |   0.0 |  0.00
Neigh   | 0          | 0          | 0          |   0.0 |  0.00
Comm    | 0          | 0          | 0          |   0.0 |  0.00
Output  | 0          | 0          | 0          |   0.0 |  0.00
Modify  | 0          | 0          | 0          |   0.0 |  0.00
Other   |            | 7.08e-07   |            |       |100.00

Nlocal:             80 ave          80 max          80 min
Histogram: 1 0 0 0 0 0 0 0 0 0
Nghost:            587 ave         587 max         587 min
Histogram: 1 0 0 0 0 0 0 0 0 0
Neighs:           4240 ave        4240 max        4240 min
Histogram: 1 0 0 0 0 0 0 0 0 0

Total # of neighbors = 4240
Ave neighs/atom = 53
Neighbor list builds = 0
Dangerous builds = 0
set atom * x 0.0 y 0.0 z 0.0
Setting atom values ...
  80 settings made for x
  80 settings made for y
  80 settings made for z
change_box all     x final 0 9.247516309863158 y final 0 11.325848173615015 z final 0 31.81285207224822      xy final -9.247516309863157 xz final 0.0 yz final 0.0 units box
Changing box ...
  triclinic box = (0 0 0) to (9.2475163 11.325864 31.812898) with tilt (-9.2475296 0 0)
  triclinic box = (0 0 0) to (9.2475163 11.325848 31.812898) with tilt (-9.2475296 0 0)
  triclinic box = (0 0 0) to (9.2475163 11.325848 31.812852) with tilt (-9.2475296 0 0)
  triclinic box = (0 0 0) to (9.2475163 11.325848 31.812852) with tilt (-9.2475163 0 0)
  triclinic box = (0 0 0) to (9.2475163 11.325848 31.812852) with tilt (-9.2475163 0 0)
  triclinic box = (0 0 0) to (9.2475163 11.325848 31.812852) with tilt (-9.2475163 0 0)
echo none
run 0
Per MPI rank memory allocation (min/avg/max) = 3.33 | 3.33 | 3.33 Mbytes
    PotEng          Pxx           E_mol          E_coul    
-615.9462      -297.01749      0              0            
Loop time of 7.5e-07 on 1 procs for 0 steps with 80 atoms

0.0% CPU use with 1 MPI tasks x no OpenMP threads

MPI task timing breakdown:
Section |  min time  |  avg time  |  max time  |%varavg| %total
---------------------------------------------------------------
Pair    | 0          | 0          | 0          |   0.0 |  0.00
Neigh   | 0          | 0          | 0          |   0.0 |  0.00
Comm    | 0          | 0          | 0          |   0.0 |  0.00
Output  | 0          | 0          | 0          |   0.0 |  0.00
Modify  | 0          | 0          | 0          |   0.0 |  0.00
Other   |            | 7.5e-07    |            |       |100.00

Nlocal:             80 ave          80 max          80 min
Histogram: 1 0 0 0 0 0 0 0 0 0
Nghost:            587 ave         587 max         587 min
Histogram: 1 0 0 0 0 0 0 0 0 0
Neighs:           4240 ave        4240 max        4240 min
Histogram: 1 0 0 0 0 0 0 0 0 0

Total # of neighbors = 4240
Ave neighs/atom = 53
Neighbor list builds = 0
Dangerous builds = 0
set atom * x 0.0 y 0.0 z 0.0
Setting atom values ...
  80 settings made for x
  80 settings made for y
  80 settings made for z
change_box all     x final 0 9.247499564361874 y final 0 11.325827664648198 z final 0 31.81279446519597      xy final -9.247499564361872 xz final 0.0 yz final 0.0 units box
Changing box ...
  triclinic box = (0 0 0) to (9.2474996 11.325848 31.812852) with tilt (-9.2475163 0 0)
  triclinic box = (0 0 0) to (9.2474996 11.325828 31.812852) with tilt (-9.2475163 0 0)
  triclinic box = (0 0 0) to (9.2474996 11.325828 31.812794) with tilt (-9.2475163 0 0)
  triclinic box = (0 0 0) to (9.2474996 11.325828 31.812794) with tilt (-9.2474996 0 0)
  triclinic box = (0 0 0) to (9.2474996 11.325828 31.812794) with tilt (-9.2474996 0 0)
  triclinic box = (0 0 0) to (9.2474996 11.325828 31.812794) with tilt (-9.2474996 0 0)
echo none
run 0
Per MPI rank memory allocation (min/avg/max) = 3.33 | 3.33 | 3.33 Mbytes
    PotEng          Pxx           E_mol          E_coul    
-615.94628     -296.29522      0              0            
Loop time of 9.17e-07 on 1 procs for 0 steps with 80 atoms

0.0% CPU use with 1 MPI tasks x no OpenMP threads

MPI task timing breakdown:
Section |  min time  |  avg time  |  max time  |%varavg| %total
---------------------------------------------------------------
Pair    | 0          | 0          | 0          |   0.0 |  0.00
Neigh   | 0          | 0          | 0          |   0.0 |  0.00
Comm    | 0          | 0          | 0          |   0.0 |  0.00
Output  | 0          | 0          | 0          |   0.0 |  0.00
Modify  | 0          | 0          | 0          |   0.0 |  0.00
Other   |            | 9.17e-07   |            |       |100.00

Nlocal:             80 ave          80 max          80 min
Histogram: 1 0 0 0 0 0 0 0 0 0
Nghost:            587 ave         587 max         587 min
Histogram: 1 0 0 0 0 0 0 0 0 0
Neighs:           4240 ave        4240 max        4240 min
Histogram: 1 0 0 0 0 0 0 0 0 0

Total # of neighbors = 4240
Ave neighs/atom = 53
Neighbor list builds = 0
Dangerous builds = 0
set atom * x 0.0 y 0.0 z 0.0
Setting atom values ...
  80 settings made for x
  80 settings made for y
  80 settings made for z
change_box all     x final 0 9.247499564361874 y final 0 11.325827664648198 z final 0 31.81279446519597      xy final -9.247499564361872 xz final 0.0 yz final 0.0 units box
Changing box ...
  triclinic box = (0 0 0) to (9.2474996 11.325828 31.812794) with tilt (-9.2474996 0 0)
  triclinic box = (0 0 0) to (9.2474996 11.325828 31.812794) with tilt (-9.2474996 0 0)
  triclinic box = (0 0 0) to (9.2474996 11.325828 31.812794) with tilt (-9.2474996 0 0)
  triclinic box = (0 0 0) to (9.2474996 11.325828 31.812794) with tilt (-9.2474996 0 0)
  triclinic box = (0 0 0) to (9.2474996 11.325828 31.812794) with tilt (-9.2474996 0 0)
  triclinic box = (0 0 0) to (9.2474996 11.325828 31.812794) with tilt (-9.2474996 0 0)
echo none
run 0
Per MPI rank memory allocation (min/avg/max) = 3.33 | 3.33 | 3.33 Mbytes
    PotEng          Pxx           E_mol          E_coul    
-615.94628     -296.29522      0              0            
Loop time of 8.33e-07 on 1 procs for 0 steps with 80 atoms

0.0% CPU use with 1 MPI tasks x no OpenMP threads

MPI task timing breakdown:
Section |  min time  |  avg time  |  max time  |%varavg| %total
---------------------------------------------------------------
Pair    | 0          | 0          | 0          |   0.0 |  0.00
Neigh   | 0          | 0          | 0          |   0.0 |  0.00
Comm    | 0          | 0          | 0          |   0.0 |  0.00
Output  | 0          | 0          | 0          |   0.0 |  0.00
Modify  | 0          | 0          | 0          |   0.0 |  0.00
Other   |            | 8.33e-07   |            |       |100.00

Nlocal:             80 ave          80 max          80 min
Histogram: 1 0 0 0 0 0 0 0 0 0
Nghost:            587 ave         587 max         587 min
Histogram: 1 0 0 0 0 0 0 0 0 0
Neighs:           4240 ave        4240 max        4240 min
Histogram: 1 0 0 0 0 0 0 0 0 0

Total # of neighbors = 4240
Ave neighs/atom = 53
Neighbor list builds = 0
Dangerous builds = 0
set atom * x 0.0 y 0.0 z 0.0
Setting atom values ...
  80 settings made for x
  80 settings made for y
  80 settings made for z
change_box all     x final 0 9.247800154829319 y final 0 11.326195811281591 z final 0 31.81382854177986      xy final -9.247800154829317 xz final 0.0 yz final 0.0 units box
Changing box ...
  triclinic box = (0 0 0) to (9.2478002 11.325828 31.812794) with tilt (-9.2474996 0 0)
  triclinic box = (0 0 0) to (9.2478002 11.326196 31.812794) with tilt (-9.2474996 0 0)
  triclinic box = (0 0 0) to (9.2478002 11.326196 31.813829) with tilt (-9.2474996 0 0)
  triclinic box = (0 0 0) to (9.2478002 11.326196 31.813829) with tilt (-9.2478002 0 0)
  triclinic box = (0 0 0) to (9.2478002 11.326196 31.813829) with tilt (-9.2478002 0 0)
  triclinic box = (0 0 0) to (9.2478002 11.326196 31.813829) with tilt (-9.2478002 0 0)
echo none
run 0
Per MPI rank memory allocation (min/avg/max) = 3.33 | 3.33 | 3.33 Mbytes
    PotEng          Pxx           E_mol          E_coul    
-615.94645     -308.72885      0              0            
Loop time of 8.34e-07 on 1 procs for 0 steps with 80 atoms

119.9% CPU use with 1 MPI tasks x no OpenMP threads

MPI task timing breakdown:
Section |  min time  |  avg time  |  max time  |%varavg| %total
---------------------------------------------------------------
Pair    | 0          | 0          | 0          |   0.0 |  0.00
Neigh   | 0          | 0          | 0          |   0.0 |  0.00
Comm    | 0          | 0          | 0          |   0.0 |  0.00
Output  | 0          | 0          | 0          |   0.0 |  0.00
Modify  | 0          | 0          | 0          |   0.0 |  0.00
Other   |            | 8.34e-07   |            |       |100.00

Nlocal:             80 ave          80 max          80 min
Histogram: 1 0 0 0 0 0 0 0 0 0
Nghost:            587 ave         587 max         587 min
Histogram: 1 0 0 0 0 0 0 0 0 0
Neighs:           4240 ave        4240 max        4240 min
Histogram: 1 0 0 0 0 0 0 0 0 0

Total # of neighbors = 4240
Ave neighs/atom = 53
Neighbor list builds = 0
Dangerous builds = 0
set atom * x 0.0 y 0.0 z 0.0
Setting atom values ...
  80 settings made for x
  80 settings made for y
  80 settings made for z
change_box all     x final 0 9.249002614409369 y final 0 11.327668517485314 z final 0 31.81796518425349      xy final -9.249002614409367 xz final 0.0 yz final 0.0 units box
Changing box ...
  triclinic box = (0 0 0) to (9.2490026 11.326196 31.813829) with tilt (-9.2478002 0 0)
  triclinic box = (0 0 0) to (9.2490026 11.327669 31.813829) with tilt (-9.2478002 0 0)
  triclinic box = (0 0 0) to (9.2490026 11.327669 31.817965) with tilt (-9.2478002 0 0)
  triclinic box = (0 0 0) to (9.2490026 11.327669 31.817965) with tilt (-9.2490026 0 0)
  triclinic box = (0 0 0) to (9.2490026 11.327669 31.817965) with tilt (-9.2490026 0 0)
  triclinic box = (0 0 0) to (9.2490026 11.327669 31.817965) with tilt (-9.2490026 0 0)
echo none
run 0
Per MPI rank memory allocation (min/avg/max) = 3.33 | 3.33 | 3.33 Mbytes
    PotEng          Pxx           E_mol          E_coul    
-615.94686     -358.3387       0              0            
Loop time of 9.58e-07 on 1 procs for 0 steps with 80 atoms

208.8% CPU use with 1 MPI tasks x no OpenMP threads

MPI task timing breakdown:
Section |  min time  |  avg time  |  max time  |%varavg| %total
---------------------------------------------------------------
Pair    | 0          | 0          | 0          |   0.0 |  0.00
Neigh   | 0          | 0          | 0          |   0.0 |  0.00
Comm    | 0          | 0          | 0          |   0.0 |  0.00
Output  | 0          | 0          | 0          |   0.0 |  0.00
Modify  | 0          | 0          | 0          |   0.0 |  0.00
Other   |            | 9.58e-07   |            |       |100.00

Nlocal:             80 ave          80 max          80 min
Histogram: 1 0 0 0 0 0 0 0 0 0
Nghost:            587 ave         587 max         587 min
Histogram: 1 0 0 0 0 0 0 0 0 0
Neighs:           4240 ave        4240 max        4240 min
Histogram: 1 0 0 0 0 0 0 0 0 0

Total # of neighbors = 4240
Ave neighs/atom = 53
Neighbor list builds = 0
Dangerous builds = 0
set atom * x 0.0 y 0.0 z 0.0
Setting atom values ...
  80 settings made for x
  80 settings made for y
  80 settings made for z
change_box all     x final 0 9.249002614409369 y final 0 11.327668517485314 z final 0 31.81796518425349      xy final -9.249002614409367 xz final 0.0 yz final 0.0 units box
Changing box ...
  triclinic box = (0 0 0) to (9.2490026 11.327669 31.817965) with tilt (-9.2490026 0 0)
  triclinic box = (0 0 0) to (9.2490026 11.327669 31.817965) with tilt (-9.2490026 0 0)
  triclinic box = (0 0 0) to (9.2490026 11.327669 31.817965) with tilt (-9.2490026 0 0)
  triclinic box = (0 0 0) to (9.2490026 11.327669 31.817965) with tilt (-9.2490026 0 0)
  triclinic box = (0 0 0) to (9.2490026 11.327669 31.817965) with tilt (-9.2490026 0 0)
  triclinic box = (0 0 0) to (9.2490026 11.327669 31.817965) with tilt (-9.2490026 0 0)
echo none
run 0
Per MPI rank memory allocation (min/avg/max) = 3.33 | 3.33 | 3.33 Mbytes
    PotEng          Pxx           E_mol          E_coul    
-615.94686     -358.3387       0              0            
Loop time of 1.25e-06 on 1 procs for 0 steps with 80 atoms

160.0% CPU use with 1 MPI tasks x no OpenMP threads

MPI task timing breakdown:
Section |  min time  |  avg time  |  max time  |%varavg| %total
---------------------------------------------------------------
Pair    | 0          | 0          | 0          |   0.0 |  0.00
Neigh   | 0          | 0          | 0          |   0.0 |  0.00
Comm    | 0          | 0          | 0          |   0.0 |  0.00
Output  | 0          | 0          | 0          |   0.0 |  0.00
Modify  | 0          | 0          | 0          |   0.0 |  0.00
Other   |            | 1.25e-06   |            |       |100.00

Nlocal:             80 ave          80 max          80 min
Histogram: 1 0 0 0 0 0 0 0 0 0
Nghost:            587 ave         587 max         587 min
Histogram: 1 0 0 0 0 0 0 0 0 0
Neighs:           4240 ave        4240 max        4240 min
Histogram: 1 0 0 0 0 0 0 0 0 0

Total # of neighbors = 4240
Ave neighs/atom = 53
Neighbor list builds = 0
Dangerous builds = 0
set atom * x 0.0 y 0.0 z 0.0
Setting atom values ...
  80 settings made for x
  80 settings made for y
  80 settings made for z
change_box all     x final 0 9.249527959556922 y final 0 11.328311931260492 z final 0 31.81977245086498      xy final -9.24952795955692 xz final 0.0 yz final 0.0 units box
Changing box ...
  triclinic box = (0 0 0) to (9.249528 11.327669 31.817965) with tilt (-9.2490026 0 0)
  triclinic box = (0 0 0) to (9.249528 11.328312 31.817965) with tilt (-9.2490026 0 0)
  triclinic box = (0 0 0) to (9.249528 11.328312 31.819772) with tilt (-9.2490026 0 0)
  triclinic box = (0 0 0) to (9.249528 11.328312 31.819772) with tilt (-9.249528 0 0)
  triclinic box = (0 0 0) to (9.249528 11.328312 31.819772) with tilt (-9.249528 0 0)
  triclinic box = (0 0 0) to (9.249528 11.328312 31.819772) with tilt (-9.249528 0 0)
echo none
run 0
Per MPI rank memory allocation (min/avg/max) = 3.33 | 3.33 | 3.33 Mbytes
    PotEng          Pxx           E_mol          E_coul    
-615.94698     -436.75658      0              0            
Loop time of 7.5e-07 on 1 procs for 0 steps with 80 atoms

133.3% CPU use with 1 MPI tasks x no OpenMP threads

MPI task timing breakdown:
Section |  min time  |  avg time  |  max time  |%varavg| %total
---------------------------------------------------------------
Pair    | 0          | 0          | 0          |   0.0 |  0.00
Neigh   | 0          | 0          | 0          |   0.0 |  0.00
Comm    | 0          | 0          | 0          |   0.0 |  0.00
Output  | 0          | 0          | 0          |   0.0 |  0.00
Modify  | 0          | 0          | 0          |   0.0 |  0.00
Other   |            | 7.5e-07    |            |       |100.00

Nlocal:             80 ave          80 max          80 min
Histogram: 1 0 0 0 0 0 0 0 0 0
Nghost:            587 ave         587 max         587 min
Histogram: 1 0 0 0 0 0 0 0 0 0
Neighs:           4240 ave        4240 max        4240 min
Histogram: 1 0 0 0 0 0 0 0 0 0

Total # of neighbors = 4240
Ave neighs/atom = 53
Neighbor list builds = 0
Dangerous builds = 0
set atom * x 0.0 y 0.0 z 0.0
Setting atom values ...
  80 settings made for x
  80 settings made for y
  80 settings made for z
change_box all     x final 0 9.249527959556922 y final 0 11.328311931260492 z final 0 31.81977245086498      xy final -9.24952795955692 xz final 0.0 yz final 0.0 units box
Changing box ...
  triclinic box = (0 0 0) to (9.249528 11.328312 31.819772) with tilt (-9.249528 0 0)
  triclinic box = (0 0 0) to (9.249528 11.328312 31.819772) with tilt (-9.249528 0 0)
  triclinic box = (0 0 0) to (9.249528 11.328312 31.819772) with tilt (-9.249528 0 0)
  triclinic box = (0 0 0) to (9.249528 11.328312 31.819772) with tilt (-9.249528 0 0)
  triclinic box = (0 0 0) to (9.249528 11.328312 31.819772) with tilt (-9.249528 0 0)
  triclinic box = (0 0 0) to (9.249528 11.328312 31.819772) with tilt (-9.249528 0 0)
echo none
run 0
Per MPI rank memory allocation (min/avg/max) = 3.33 | 3.33 | 3.33 Mbytes
    PotEng          Pxx           E_mol          E_coul    
-615.94698     -436.75658      0              0            
Loop time of 8.33e-07 on 1 procs for 0 steps with 80 atoms

240.1% CPU use with 1 MPI tasks x no OpenMP threads

MPI task timing breakdown:
Section |  min time  |  avg time  |  max time  |%varavg| %total
---------------------------------------------------------------
Pair    | 0          | 0          | 0          |   0.0 |  0.00
Neigh   | 0          | 0          | 0          |   0.0 |  0.00
Comm    | 0          | 0          | 0          |   0.0 |  0.00
Output  | 0          | 0          | 0          |   0.0 |  0.00
Modify  | 0          | 0          | 0          |   0.0 |  0.00
Other   |            | 8.33e-07   |            |       |100.00

Nlocal:             80 ave          80 max          80 min
Histogram: 1 0 0 0 0 0 0 0 0 0
Nghost:            587 ave         587 max         587 min
Histogram: 1 0 0 0 0 0 0 0 0 0
Neighs:           4240 ave        4240 max        4240 min
Histogram: 1 0 0 0 0 0 0 0 0 0

Total # of neighbors = 4240
Ave neighs/atom = 53
Neighbor list builds = 0
Dangerous builds = 0
set atom * x 0.0 y 0.0 z 0.0
Setting atom values ...
  80 settings made for x
  80 settings made for y
  80 settings made for z
change_box all     x final 0 9.249594359843123 y final 0 11.328393254670477 z final 0 31.82000087787302      xy final -9.24959435984312 xz final 0.0 yz final 0.0 units box
Changing box ...
  triclinic box = (0 0 0) to (9.2495944 11.328312 31.819772) with tilt (-9.249528 0 0)
  triclinic box = (0 0 0) to (9.2495944 11.328393 31.819772) with tilt (-9.249528 0 0)
  triclinic box = (0 0 0) to (9.2495944 11.328393 31.820001) with tilt (-9.249528 0 0)
  triclinic box = (0 0 0) to (9.2495944 11.328393 31.820001) with tilt (-9.2495944 0 0)
  triclinic box = (0 0 0) to (9.2495944 11.328393 31.820001) with tilt (-9.2495944 0 0)
  triclinic box = (0 0 0) to (9.2495944 11.328393 31.820001) with tilt (-9.2495944 0 0)
echo none
run 0
Per MPI rank memory allocation (min/avg/max) = 3.33 | 3.33 | 3.33 Mbytes
    PotEng          Pxx           E_mol          E_coul    
-615.94699     -464.23384      0              0            
Loop time of 9.58e-07 on 1 procs for 0 steps with 80 atoms

104.4% CPU use with 1 MPI tasks x no OpenMP threads

MPI task timing breakdown:
Section |  min time  |  avg time  |  max time  |%varavg| %total
---------------------------------------------------------------
Pair    | 0          | 0          | 0          |   0.0 |  0.00
Neigh   | 0          | 0          | 0          |   0.0 |  0.00
Comm    | 0          | 0          | 0          |   0.0 |  0.00
Output  | 0          | 0          | 0          |   0.0 |  0.00
Modify  | 0          | 0          | 0          |   0.0 |  0.00
Other   |            | 9.58e-07   |            |       |100.00

Nlocal:             80 ave          80 max          80 min
Histogram: 1 0 0 0 0 0 0 0 0 0
Nghost:            587 ave         587 max         587 min
Histogram: 1 0 0 0 0 0 0 0 0 0
Neighs:           4240 ave        4240 max        4240 min
Histogram: 1 0 0 0 0 0 0 0 0 0

Total # of neighbors = 4240
Ave neighs/atom = 53
Neighbor list builds = 0
Dangerous builds = 0
Total wall time: 0:00:03
