LAMMPS (23 Jun 2022 - Update 4)
units metal
atom_style atomic
atom_modify map array sort 0 0
boundary p p p
box tilt large
region cell prism    0 3.24 0 2.8059223082615814 0 5.157     -1.62 0.0 0.0     units box
create_box 1 cell
Created triclinic box = (0 0 0) to (3.24 2.8059223 5.157) with tilt (-1.62 0 0)
  1 by 1 by 1 MPI processor grid
echo none
Created 2 atoms
  using lattice units in triclinic box = (0 0 0) to (3.24 2.8059223 5.157) with tilt (-1.62 0 0)
  create_atoms CPU = 0.000 seconds
Setting atom values ...
  1 settings made for type
Setting atom values ...
  1 settings made for type
pair_style eam/alloy
pair_coeff * * potentials/Zr.eam.alloy Zr
Reading eam/alloy potential file potentials/Zr.eam.alloy with DATE: 2018-03-30
mass 1 91.223999976533150402246974408627
variable pxx equal pxx
variable pyy equal pyy
variable pzz equal pzz
variable pxy equal pxy
variable pxz equal pxz
variable pyz equal pyz
thermo_style custom pe pxx emol ecoul
variable fx atom fx
variable fy atom fy
variable fz atom fz
variable pe equal pe
neigh_modify delay 0 every 1 check yes
echo none
run 0
WARNING: No fixes with time integration, atoms won't move (src/src/verlet.cpp:60)
Neighbor list info ...
  update every 1 steps, delay 0 steps, check yes
  max neighbors/atom: 2000, page size: 100000
  master list distance cutoff = 9.1553683
  ghost atom cutoff = 9.1553683
  binsize = 4.5776842, bins = 2 1 2
  1 neighbor lists, perpetual/occasional/extra = 1 0 0
  (1) pair eam/alloy, perpetual
      attributes: half, newton on
      pair build: half/bin/newton/tri
      stencil: half/bin/3d/tri
      bin: standard
Per MPI rank memory allocation (min/avg/max) = 3.249 | 3.249 | 3.249 Mbytes
    PotEng          Pxx           E_mol          E_coul    
-12.715644     -14170.077      0              0            
Loop time of 1.208e-06 on 1 procs for 0 steps with 2 atoms

248.3% CPU use with 1 MPI tasks x no OpenMP threads

MPI task timing breakdown:
Section |  min time  |  avg time  |  max time  |%varavg| %total
---------------------------------------------------------------
Pair    | 0          | 0          | 0          |   0.0 |  0.00
Neigh   | 0          | 0          | 0          |   0.0 |  0.00
Comm    | 0          | 0          | 0          |   0.0 |  0.00
Output  | 0          | 0          | 0          |   0.0 |  0.00
Modify  | 0          | 0          | 0          |   0.0 |  0.00
Other   |            | 1.208e-06  |            |       |100.00

Nlocal:              2 ave           2 max           2 min
Histogram: 1 0 0 0 0 0 0 0 0 0
Nghost:            499 ave         499 max         499 min
Histogram: 1 0 0 0 0 0 0 0 0 0
Neighs:            134 ave         134 max         134 min
Histogram: 1 0 0 0 0 0 0 0 0 0

Total # of neighbors = 134
Ave neighs/atom = 67
Neighbor list builds = 0
Dangerous builds = 0
set atom * x 0.0 y 0.0 z 0.0
Setting atom values ...
  2 settings made for x
  2 settings made for y
  2 settings made for z
change_box all     x final 0 3.1585839564414093 y final 0 2.735413946264221 z final 0 5.027412797335909      xy final -1.5792919782207047 xz final 0.0 yz final 0.0 units box
Changing box ...
WARNING: Triclinic box skew is large (src/src/domain.cpp:224)
  triclinic box = (0 0 0) to (3.158584 2.8059223 5.157) with tilt (-1.62 0 0)
WARNING: Triclinic box skew is large (src/src/domain.cpp:224)
  triclinic box = (0 0 0) to (3.158584 2.7354139 5.157) with tilt (-1.62 0 0)
WARNING: Triclinic box skew is large (src/src/domain.cpp:224)
  triclinic box = (0 0 0) to (3.158584 2.7354139 5.0274128) with tilt (-1.62 0 0)
  triclinic box = (0 0 0) to (3.158584 2.7354139 5.0274128) with tilt (-1.579292 0 0)
  triclinic box = (0 0 0) to (3.158584 2.7354139 5.0274128) with tilt (-1.579292 0 0)
  triclinic box = (0 0 0) to (3.158584 2.7354139 5.0274128) with tilt (-1.579292 0 0)
echo none
run 0
WARNING: No fixes with time integration, atoms won't move (src/src/verlet.cpp:60)
Per MPI rank memory allocation (min/avg/max) = 3.25 | 3.25 | 3.25 Mbytes
    PotEng          Pxx           E_mol          E_coul    
-12.651749      62672.101      0              0            
Loop time of 8.33e-07 on 1 procs for 0 steps with 2 atoms

120.0% CPU use with 1 MPI tasks x no OpenMP threads

MPI task timing breakdown:
Section |  min time  |  avg time  |  max time  |%varavg| %total
---------------------------------------------------------------
Pair    | 0          | 0          | 0          |   0.0 |  0.00
Neigh   | 0          | 0          | 0          |   0.0 |  0.00
Comm    | 0          | 0          | 0          |   0.0 |  0.00
Output  | 0          | 0          | 0          |   0.0 |  0.00
Modify  | 0          | 0          | 0          |   0.0 |  0.00
Other   |            | 8.33e-07   |            |       |100.00

Nlocal:              2 ave           2 max           2 min
Histogram: 1 0 0 0 0 0 0 0 0 0
Nghost:            574 ave         574 max         574 min
Histogram: 1 0 0 0 0 0 0 0 0 0
Neighs:            146 ave         146 max         146 min
Histogram: 1 0 0 0 0 0 0 0 0 0

Total # of neighbors = 146
Ave neighs/atom = 73
Neighbor list builds = 0
Dangerous builds = 0
set atom * x 0.0 y 0.0 z 0.0
Setting atom values ...
  2 settings made for x
  2 settings made for y
  2 settings made for z
change_box all     x final 0 3.230205814101963 y final 0 2.7974402944644936 z final 0 5.141410920778957      xy final -1.6151029070509815 xz final 0.0 yz final 0.0 units box
Changing box ...
  triclinic box = (0 0 0) to (3.2302058 2.7354139 5.0274128) with tilt (-1.579292 0 0)
  triclinic box = (0 0 0) to (3.2302058 2.7974403 5.0274128) with tilt (-1.579292 0 0)
  triclinic box = (0 0 0) to (3.2302058 2.7974403 5.1414109) with tilt (-1.579292 0 0)
  triclinic box = (0 0 0) to (3.2302058 2.7974403 5.1414109) with tilt (-1.6151029 0 0)
  triclinic box = (0 0 0) to (3.2302058 2.7974403 5.1414109) with tilt (-1.6151029 0 0)
  triclinic box = (0 0 0) to (3.2302058 2.7974403 5.1414109) with tilt (-1.6151029 0 0)
echo none
run 0
WARNING: No fixes with time integration, atoms won't move (src/src/verlet.cpp:60)
Per MPI rank memory allocation (min/avg/max) = 3.25 | 3.25 | 3.25 Mbytes
    PotEng          Pxx           E_mol          E_coul    
-12.716808     -6084.1696      0              0            
Loop time of 9.17e-07 on 1 procs for 0 steps with 2 atoms

109.1% CPU use with 1 MPI tasks x no OpenMP threads

MPI task timing breakdown:
Section |  min time  |  avg time  |  max time  |%varavg| %total
---------------------------------------------------------------
Pair    | 0          | 0          | 0          |   0.0 |  0.00
Neigh   | 0          | 0          | 0          |   0.0 |  0.00
Comm    | 0          | 0          | 0          |   0.0 |  0.00
Output  | 0          | 0          | 0          |   0.0 |  0.00
Modify  | 0          | 0          | 0          |   0.0 |  0.00
Other   |            | 9.17e-07   |            |       |100.00

Nlocal:              2 ave           2 max           2 min
Histogram: 1 0 0 0 0 0 0 0 0 0
Nghost:            499 ave         499 max         499 min
Histogram: 1 0 0 0 0 0 0 0 0 0
Neighs:            134 ave         134 max         134 min
Histogram: 1 0 0 0 0 0 0 0 0 0

Total # of neighbors = 134
Ave neighs/atom = 67
Neighbor list builds = 0
Dangerous builds = 0
set atom * x 0.0 y 0.0 z 0.0
Setting atom values ...
  2 settings made for x
  2 settings made for y
  2 settings made for z
change_box all     x final 0 2.907185232691767 y final 0 2.5176962650180443 z final 0 4.627269828701061      xy final -1.4535926163458834 xz final 0.0 yz final 0.0 units box
Changing box ...
WARNING: Triclinic box skew is large (src/src/domain.cpp:224)
  triclinic box = (0 0 0) to (2.9071852 2.7974403 5.1414109) with tilt (-1.6151029 0 0)
WARNING: Triclinic box skew is large (src/src/domain.cpp:224)
  triclinic box = (0 0 0) to (2.9071852 2.5176963 5.1414109) with tilt (-1.6151029 0 0)
WARNING: Triclinic box skew is large (src/src/domain.cpp:224)
  triclinic box = (0 0 0) to (2.9071852 2.5176963 4.6272698) with tilt (-1.6151029 0 0)
  triclinic box = (0 0 0) to (2.9071852 2.5176963 4.6272698) with tilt (-1.4535926 0 0)
  triclinic box = (0 0 0) to (2.9071852 2.5176963 4.6272698) with tilt (-1.4535926 0 0)
  triclinic box = (0 0 0) to (2.9071852 2.5176963 4.6272698) with tilt (-1.4535926 0 0)
echo none
run 0
WARNING: No fixes with time integration, atoms won't move (src/src/verlet.cpp:60)
Per MPI rank memory allocation (min/avg/max) = 3.252 | 3.252 | 3.252 Mbytes
    PotEng          Pxx           E_mol          E_coul    
-10.959493      568868.52      0              0            
Loop time of 9.58e-07 on 1 procs for 0 steps with 2 atoms

104.4% CPU use with 1 MPI tasks x no OpenMP threads

MPI task timing breakdown:
Section |  min time  |  avg time  |  max time  |%varavg| %total
---------------------------------------------------------------
Pair    | 0          | 0          | 0          |   0.0 |  0.00
Neigh   | 0          | 0          | 0          |   0.0 |  0.00
Comm    | 0          | 0          | 0          |   0.0 |  0.00
Output  | 0          | 0          | 0          |   0.0 |  0.00
Modify  | 0          | 0          | 0          |   0.0 |  0.00
Other   |            | 9.58e-07   |            |       |100.00

Nlocal:              2 ave           2 max           2 min
Histogram: 1 0 0 0 0 0 0 0 0 0
Nghost:            574 ave         574 max         574 min
Histogram: 1 0 0 0 0 0 0 0 0 0
Neighs:            182 ave         182 max         182 min
Histogram: 1 0 0 0 0 0 0 0 0 0

Total # of neighbors = 182
Ave neighs/atom = 91
Neighbor list builds = 0
Dangerous builds = 0
set atom * x 0.0 y 0.0 z 0.0
Setting atom values ...
  2 settings made for x
  2 settings made for y
  2 settings made for z
change_box all     x final 0 2.9394872908327865 y final 0 2.5456706679626895 z final 0 4.6786839379088505      xy final -1.4697436454163932 xz final 0.0 yz final 0.0 units box
Changing box ...
  triclinic box = (0 0 0) to (2.9394873 2.5176963 4.6272698) with tilt (-1.4535926 0 0)
  triclinic box = (0 0 0) to (2.9394873 2.5456707 4.6272698) with tilt (-1.4535926 0 0)
  triclinic box = (0 0 0) to (2.9394873 2.5456707 4.6786839) with tilt (-1.4535926 0 0)
  triclinic box = (0 0 0) to (2.9394873 2.5456707 4.6786839) with tilt (-1.4697436 0 0)
  triclinic box = (0 0 0) to (2.9394873 2.5456707 4.6786839) with tilt (-1.4697436 0 0)
  triclinic box = (0 0 0) to (2.9394873 2.5456707 4.6786839) with tilt (-1.4697436 0 0)
echo none
run 0
WARNING: No fixes with time integration, atoms won't move (src/src/verlet.cpp:60)
Per MPI rank memory allocation (min/avg/max) = 3.252 | 3.252 | 3.252 Mbytes
    PotEng          Pxx           E_mol          E_coul    
-11.347511      471341.04      0              0            
Loop time of 1.042e-06 on 1 procs for 0 steps with 2 atoms

0.0% CPU use with 1 MPI tasks x no OpenMP threads

MPI task timing breakdown:
Section |  min time  |  avg time  |  max time  |%varavg| %total
---------------------------------------------------------------
Pair    | 0          | 0          | 0          |   0.0 |  0.00
Neigh   | 0          | 0          | 0          |   0.0 |  0.00
Comm    | 0          | 0          | 0          |   0.0 |  0.00
Output  | 0          | 0          | 0          |   0.0 |  0.00
Modify  | 0          | 0          | 0          |   0.0 |  0.00
Other   |            | 1.042e-06  |            |       |100.00

Nlocal:              2 ave           2 max           2 min
Histogram: 1 0 0 0 0 0 0 0 0 0
Nghost:            574 ave         574 max         574 min
Histogram: 1 0 0 0 0 0 0 0 0 0
Neighs:            182 ave         182 max         182 min
Histogram: 1 0 0 0 0 0 0 0 0 0

Total # of neighbors = 182
Ave neighs/atom = 91
Neighbor list builds = 0
Dangerous builds = 0
set atom * x 0.0 y 0.0 z 0.0
Setting atom values ...
  2 settings made for x
  2 settings made for y
  2 settings made for z
change_box all     x final 0 2.971789348973806 y final 0 2.573645070907334 z final 0 4.73009804711664      xy final -1.485894674486903 xz final 0.0 yz final 0.0 units box
Changing box ...
  triclinic box = (0 0 0) to (2.9717893 2.5456707 4.6786839) with tilt (-1.4697436 0 0)
  triclinic box = (0 0 0) to (2.9717893 2.5736451 4.6786839) with tilt (-1.4697436 0 0)
  triclinic box = (0 0 0) to (2.9717893 2.5736451 4.730098) with tilt (-1.4697436 0 0)
  triclinic box = (0 0 0) to (2.9717893 2.5736451 4.730098) with tilt (-1.4858947 0 0)
  triclinic box = (0 0 0) to (2.9717893 2.5736451 4.730098) with tilt (-1.4858947 0 0)
  triclinic box = (0 0 0) to (2.9717893 2.5736451 4.730098) with tilt (-1.4858947 0 0)
echo none
run 0
WARNING: No fixes with time integration, atoms won't move (src/src/verlet.cpp:60)
Per MPI rank memory allocation (min/avg/max) = 3.252 | 3.252 | 3.252 Mbytes
    PotEng          Pxx           E_mol          E_coul    
-11.675939      385798.49      0              0            
Loop time of 6.66e-07 on 1 procs for 0 steps with 2 atoms

150.2% CPU use with 1 MPI tasks x no OpenMP threads

MPI task timing breakdown:
Section |  min time  |  avg time  |  max time  |%varavg| %total
---------------------------------------------------------------
Pair    | 0          | 0          | 0          |   0.0 |  0.00
Neigh   | 0          | 0          | 0          |   0.0 |  0.00
Comm    | 0          | 0          | 0          |   0.0 |  0.00
Output  | 0          | 0          | 0          |   0.0 |  0.00
Modify  | 0          | 0          | 0          |   0.0 |  0.00
Other   |            | 6.66e-07   |            |       |100.00

Nlocal:              2 ave           2 max           2 min
Histogram: 1 0 0 0 0 0 0 0 0 0
Nghost:            574 ave         574 max         574 min
Histogram: 1 0 0 0 0 0 0 0 0 0
Neighs:            158 ave         158 max         158 min
Histogram: 1 0 0 0 0 0 0 0 0 0

Total # of neighbors = 158
Ave neighs/atom = 79
Neighbor list builds = 0
Dangerous builds = 0
set atom * x 0.0 y 0.0 z 0.0
Setting atom values ...
  2 settings made for x
  2 settings made for y
  2 settings made for z
change_box all     x final 0 3.0040914071148257 y final 0 2.6016194738519793 z final 0 4.78151215632443      xy final -1.5020457035574128 xz final 0.0 yz final 0.0 units box
Changing box ...
  triclinic box = (0 0 0) to (3.0040914 2.5736451 4.730098) with tilt (-1.4858947 0 0)
  triclinic box = (0 0 0) to (3.0040914 2.6016195 4.730098) with tilt (-1.4858947 0 0)
  triclinic box = (0 0 0) to (3.0040914 2.6016195 4.7815122) with tilt (-1.4858947 0 0)
  triclinic box = (0 0 0) to (3.0040914 2.6016195 4.7815122) with tilt (-1.5020457 0 0)
  triclinic box = (0 0 0) to (3.0040914 2.6016195 4.7815122) with tilt (-1.5020457 0 0)
  triclinic box = (0 0 0) to (3.0040914 2.6016195 4.7815122) with tilt (-1.5020457 0 0)
echo none
run 0
WARNING: No fixes with time integration, atoms won't move (src/src/verlet.cpp:60)
Per MPI rank memory allocation (min/avg/max) = 3.252 | 3.252 | 3.252 Mbytes
    PotEng          Pxx           E_mol          E_coul    
-11.949961      310648.43      0              0            
Loop time of 7.5e-07 on 1 procs for 0 steps with 2 atoms

133.3% CPU use with 1 MPI tasks x no OpenMP threads

MPI task timing breakdown:
Section |  min time  |  avg time  |  max time  |%varavg| %total
---------------------------------------------------------------
Pair    | 0          | 0          | 0          |   0.0 |  0.00
Neigh   | 0          | 0          | 0          |   0.0 |  0.00
Comm    | 0          | 0          | 0          |   0.0 |  0.00
Output  | 0          | 0          | 0          |   0.0 |  0.00
Modify  | 0          | 0          | 0          |   0.0 |  0.00
Other   |            | 7.5e-07    |            |       |100.00

Nlocal:              2 ave           2 max           2 min
Histogram: 1 0 0 0 0 0 0 0 0 0
Nghost:            574 ave         574 max         574 min
Histogram: 1 0 0 0 0 0 0 0 0 0
Neighs:            158 ave         158 max         158 min
Histogram: 1 0 0 0 0 0 0 0 0 0

Total # of neighbors = 158
Ave neighs/atom = 79
Neighbor list builds = 0
Dangerous builds = 0
set atom * x 0.0 y 0.0 z 0.0
Setting atom values ...
  2 settings made for x
  2 settings made for y
  2 settings made for z
change_box all     x final 0 3.0363934652558453 y final 0 2.629593876796624 z final 0 4.83292626553222      xy final -1.5181967326279227 xz final 0.0 yz final 0.0 units box
Changing box ...
  triclinic box = (0 0 0) to (3.0363935 2.6016195 4.7815122) with tilt (-1.5020457 0 0)
  triclinic box = (0 0 0) to (3.0363935 2.6295939 4.7815122) with tilt (-1.5020457 0 0)
  triclinic box = (0 0 0) to (3.0363935 2.6295939 4.8329263) with tilt (-1.5020457 0 0)
  triclinic box = (0 0 0) to (3.0363935 2.6295939 4.8329263) with tilt (-1.5181967 0 0)
  triclinic box = (0 0 0) to (3.0363935 2.6295939 4.8329263) with tilt (-1.5181967 0 0)
  triclinic box = (0 0 0) to (3.0363935 2.6295939 4.8329263) with tilt (-1.5181967 0 0)
echo none
run 0
WARNING: No fixes with time integration, atoms won't move (src/src/verlet.cpp:60)
Per MPI rank memory allocation (min/avg/max) = 3.252 | 3.252 | 3.252 Mbytes
    PotEng          Pxx           E_mol          E_coul    
-12.174537      244552.39      0              0            
Loop time of 1.167e-06 on 1 procs for 0 steps with 2 atoms

85.7% CPU use with 1 MPI tasks x no OpenMP threads

MPI task timing breakdown:
Section |  min time  |  avg time  |  max time  |%varavg| %total
---------------------------------------------------------------
Pair    | 0          | 0          | 0          |   0.0 |  0.00
Neigh   | 0          | 0          | 0          |   0.0 |  0.00
Comm    | 0          | 0          | 0          |   0.0 |  0.00
Output  | 0          | 0          | 0          |   0.0 |  0.00
Modify  | 0          | 0          | 0          |   0.0 |  0.00
Other   |            | 1.167e-06  |            |       |100.00

Nlocal:              2 ave           2 max           2 min
Histogram: 1 0 0 0 0 0 0 0 0 0
Nghost:            574 ave         574 max         574 min
Histogram: 1 0 0 0 0 0 0 0 0 0
Neighs:            158 ave         158 max         158 min
Histogram: 1 0 0 0 0 0 0 0 0 0

Total # of neighbors = 158
Ave neighs/atom = 79
Neighbor list builds = 0
Dangerous builds = 0
set atom * x 0.0 y 0.0 z 0.0
Setting atom values ...
  2 settings made for x
  2 settings made for y
  2 settings made for z
change_box all     x final 0 3.068695523396865 y final 0 2.657568279741269 z final 0 4.88434037474001      xy final -1.5343477616984325 xz final 0.0 yz final 0.0 units box
Changing box ...
  triclinic box = (0 0 0) to (3.0686955 2.6295939 4.8329263) with tilt (-1.5181967 0 0)
  triclinic box = (0 0 0) to (3.0686955 2.6575683 4.8329263) with tilt (-1.5181967 0 0)
  triclinic box = (0 0 0) to (3.0686955 2.6575683 4.8843404) with tilt (-1.5181967 0 0)
  triclinic box = (0 0 0) to (3.0686955 2.6575683 4.8843404) with tilt (-1.5343478 0 0)
  triclinic box = (0 0 0) to (3.0686955 2.6575683 4.8843404) with tilt (-1.5343478 0 0)
  triclinic box = (0 0 0) to (3.0686955 2.6575683 4.8843404) with tilt (-1.5343478 0 0)
echo none
run 0
WARNING: No fixes with time integration, atoms won't move (src/src/verlet.cpp:60)
Per MPI rank memory allocation (min/avg/max) = 3.252 | 3.252 | 3.252 Mbytes
    PotEng          Pxx           E_mol          E_coul    
-12.353932      186638.44      0              0            
Loop time of 5.83e-07 on 1 procs for 0 steps with 2 atoms

0.0% CPU use with 1 MPI tasks x no OpenMP threads

MPI task timing breakdown:
Section |  min time  |  avg time  |  max time  |%varavg| %total
---------------------------------------------------------------
Pair    | 0          | 0          | 0          |   0.0 |  0.00
Neigh   | 0          | 0          | 0          |   0.0 |  0.00
Comm    | 0          | 0          | 0          |   0.0 |  0.00
Output  | 0          | 0          | 0          |   0.0 |  0.00
Modify  | 0          | 0          | 0          |   0.0 |  0.00
Other   |            | 5.83e-07   |            |       |100.00

Nlocal:              2 ave           2 max           2 min
Histogram: 1 0 0 0 0 0 0 0 0 0
Nghost:            574 ave         574 max         574 min
Histogram: 1 0 0 0 0 0 0 0 0 0
Neighs:            146 ave         146 max         146 min
Histogram: 1 0 0 0 0 0 0 0 0 0

Total # of neighbors = 146
Ave neighs/atom = 73
Neighbor list builds = 0
Dangerous builds = 0
set atom * x 0.0 y 0.0 z 0.0
Setting atom values ...
  2 settings made for x
  2 settings made for y
  2 settings made for z
change_box all     x final 0 3.1009975815378845 y final 0 2.685542682685914 z final 0 4.9357544839477985      xy final -1.5504987907689423 xz final 0.0 yz final 0.0 units box
Changing box ...
  triclinic box = (0 0 0) to (3.1009976 2.6575683 4.8843404) with tilt (-1.5343478 0 0)
  triclinic box = (0 0 0) to (3.1009976 2.6855427 4.8843404) with tilt (-1.5343478 0 0)
  triclinic box = (0 0 0) to (3.1009976 2.6855427 4.9357545) with tilt (-1.5343478 0 0)
  triclinic box = (0 0 0) to (3.1009976 2.6855427 4.9357545) with tilt (-1.5504988 0 0)
  triclinic box = (0 0 0) to (3.1009976 2.6855427 4.9357545) with tilt (-1.5504988 0 0)
  triclinic box = (0 0 0) to (3.1009976 2.6855427 4.9357545) with tilt (-1.5504988 0 0)
echo none
run 0
WARNING: No fixes with time integration, atoms won't move (src/src/verlet.cpp:60)
Per MPI rank memory allocation (min/avg/max) = 3.252 | 3.252 | 3.252 Mbytes
    PotEng          Pxx           E_mol          E_coul    
-12.49288       135884.19      0              0            
Loop time of 7.5e-07 on 1 procs for 0 steps with 2 atoms

266.7% CPU use with 1 MPI tasks x no OpenMP threads

MPI task timing breakdown:
Section |  min time  |  avg time  |  max time  |%varavg| %total
---------------------------------------------------------------
Pair    | 0          | 0          | 0          |   0.0 |  0.00
Neigh   | 0          | 0          | 0          |   0.0 |  0.00
Comm    | 0          | 0          | 0          |   0.0 |  0.00
Output  | 0          | 0          | 0          |   0.0 |  0.00
Modify  | 0          | 0          | 0          |   0.0 |  0.00
Other   |            | 7.5e-07    |            |       |100.00

Nlocal:              2 ave           2 max           2 min
Histogram: 1 0 0 0 0 0 0 0 0 0
Nghost:            574 ave         574 max         574 min
Histogram: 1 0 0 0 0 0 0 0 0 0
Neighs:            146 ave         146 max         146 min
Histogram: 1 0 0 0 0 0 0 0 0 0

Total # of neighbors = 146
Ave neighs/atom = 73
Neighbor list builds = 0
Dangerous builds = 0
set atom * x 0.0 y 0.0 z 0.0
Setting atom values ...
  2 settings made for x
  2 settings made for y
  2 settings made for z
change_box all     x final 0 3.133299639678904 y final 0 2.713517085630559 z final 0 4.987168593155588      xy final -1.566649819839452 xz final 0.0 yz final 0.0 units box
Changing box ...
  triclinic box = (0 0 0) to (3.1332996 2.6855427 4.9357545) with tilt (-1.5504988 0 0)
  triclinic box = (0 0 0) to (3.1332996 2.7135171 4.9357545) with tilt (-1.5504988 0 0)
  triclinic box = (0 0 0) to (3.1332996 2.7135171 4.9871686) with tilt (-1.5504988 0 0)
  triclinic box = (0 0 0) to (3.1332996 2.7135171 4.9871686) with tilt (-1.5666498 0 0)
  triclinic box = (0 0 0) to (3.1332996 2.7135171 4.9871686) with tilt (-1.5666498 0 0)
  triclinic box = (0 0 0) to (3.1332996 2.7135171 4.9871686) with tilt (-1.5666498 0 0)
echo none
run 0
WARNING: No fixes with time integration, atoms won't move (src/src/verlet.cpp:60)
Per MPI rank memory allocation (min/avg/max) = 3.252 | 3.252 | 3.252 Mbytes
    PotEng          Pxx           E_mol          E_coul    
-12.594931      91853.279      0              0            
Loop time of 8.33e-07 on 1 procs for 0 steps with 2 atoms

120.0% CPU use with 1 MPI tasks x no OpenMP threads

MPI task timing breakdown:
Section |  min time  |  avg time  |  max time  |%varavg| %total
---------------------------------------------------------------
Pair    | 0          | 0          | 0          |   0.0 |  0.00
Neigh   | 0          | 0          | 0          |   0.0 |  0.00
Comm    | 0          | 0          | 0          |   0.0 |  0.00
Output  | 0          | 0          | 0          |   0.0 |  0.00
Modify  | 0          | 0          | 0          |   0.0 |  0.00
Other   |            | 8.33e-07   |            |       |100.00

Nlocal:              2 ave           2 max           2 min
Histogram: 1 0 0 0 0 0 0 0 0 0
Nghost:            574 ave         574 max         574 min
Histogram: 1 0 0 0 0 0 0 0 0 0
Neighs:            146 ave         146 max         146 min
Histogram: 1 0 0 0 0 0 0 0 0 0

Total # of neighbors = 146
Ave neighs/atom = 73
Neighbor list builds = 0
Dangerous builds = 0
set atom * x 0.0 y 0.0 z 0.0
Setting atom values ...
  2 settings made for x
  2 settings made for y
  2 settings made for z
change_box all     x final 0 3.165601697819924 y final 0 2.741491488575204 z final 0 5.038582702363378      xy final -1.582800848909962 xz final 0.0 yz final 0.0 units box
Changing box ...
  triclinic box = (0 0 0) to (3.1656017 2.7135171 4.9871686) with tilt (-1.5666498 0 0)
  triclinic box = (0 0 0) to (3.1656017 2.7414915 4.9871686) with tilt (-1.5666498 0 0)
  triclinic box = (0 0 0) to (3.1656017 2.7414915 5.0385827) with tilt (-1.5666498 0 0)
  triclinic box = (0 0 0) to (3.1656017 2.7414915 5.0385827) with tilt (-1.5828008 0 0)
  triclinic box = (0 0 0) to (3.1656017 2.7414915 5.0385827) with tilt (-1.5828008 0 0)
  triclinic box = (0 0 0) to (3.1656017 2.7414915 5.0385827) with tilt (-1.5828008 0 0)
echo none
run 0
WARNING: No fixes with time integration, atoms won't move (src/src/verlet.cpp:60)
Per MPI rank memory allocation (min/avg/max) = 3.252 | 3.252 | 3.252 Mbytes
    PotEng          Pxx           E_mol          E_coul    
-12.664252      55094.457      0              0            
Loop time of 7.5e-07 on 1 procs for 0 steps with 2 atoms

133.3% CPU use with 1 MPI tasks x no OpenMP threads

MPI task timing breakdown:
Section |  min time  |  avg time  |  max time  |%varavg| %total
---------------------------------------------------------------
Pair    | 0          | 0          | 0          |   0.0 |  0.00
Neigh   | 0          | 0          | 0          |   0.0 |  0.00
Comm    | 0          | 0          | 0          |   0.0 |  0.00
Output  | 0          | 0          | 0          |   0.0 |  0.00
Modify  | 0          | 0          | 0          |   0.0 |  0.00
Other   |            | 7.5e-07    |            |       |100.00

Nlocal:              2 ave           2 max           2 min
Histogram: 1 0 0 0 0 0 0 0 0 0
Nghost:            574 ave         574 max         574 min
Histogram: 1 0 0 0 0 0 0 0 0 0
Neighs:            146 ave         146 max         146 min
Histogram: 1 0 0 0 0 0 0 0 0 0

Total # of neighbors = 146
Ave neighs/atom = 73
Neighbor list builds = 0
Dangerous builds = 0
set atom * x 0.0 y 0.0 z 0.0
Setting atom values ...
  2 settings made for x
  2 settings made for y
  2 settings made for z
change_box all     x final 0 3.197903755960944 y final 0 2.769465891519849 z final 0 5.089996811571168      xy final -1.598951877980472 xz final 0.0 yz final 0.0 units box
Changing box ...
  triclinic box = (0 0 0) to (3.1979038 2.7414915 5.0385827) with tilt (-1.5828008 0 0)
  triclinic box = (0 0 0) to (3.1979038 2.7694659 5.0385827) with tilt (-1.5828008 0 0)
  triclinic box = (0 0 0) to (3.1979038 2.7694659 5.0899968) with tilt (-1.5828008 0 0)
  triclinic box = (0 0 0) to (3.1979038 2.7694659 5.0899968) with tilt (-1.5989519 0 0)
  triclinic box = (0 0 0) to (3.1979038 2.7694659 5.0899968) with tilt (-1.5989519 0 0)
  triclinic box = (0 0 0) to (3.1979038 2.7694659 5.0899968) with tilt (-1.5989519 0 0)
echo none
run 0
WARNING: No fixes with time integration, atoms won't move (src/src/verlet.cpp:60)
Per MPI rank memory allocation (min/avg/max) = 3.252 | 3.252 | 3.252 Mbytes
    PotEng          Pxx           E_mol          E_coul    
-12.704307      22557.577      0              0            
Loop time of 1.167e-06 on 1 procs for 0 steps with 2 atoms

85.7% CPU use with 1 MPI tasks x no OpenMP threads

MPI task timing breakdown:
Section |  min time  |  avg time  |  max time  |%varavg| %total
---------------------------------------------------------------
Pair    | 0          | 0          | 0          |   0.0 |  0.00
Neigh   | 0          | 0          | 0          |   0.0 |  0.00
Comm    | 0          | 0          | 0          |   0.0 |  0.00
Output  | 0          | 0          | 0          |   0.0 |  0.00
Modify  | 0          | 0          | 0          |   0.0 |  0.00
Other   |            | 1.167e-06  |            |       |100.00

Nlocal:              2 ave           2 max           2 min
Histogram: 1 0 0 0 0 0 0 0 0 0
Nghost:            499 ave         499 max         499 min
Histogram: 1 0 0 0 0 0 0 0 0 0
Neighs:            146 ave         146 max         146 min
Histogram: 1 0 0 0 0 0 0 0 0 0

Total # of neighbors = 146
Ave neighs/atom = 73
Neighbor list builds = 0
Dangerous builds = 0
set atom * x 0.0 y 0.0 z 0.0
Setting atom values ...
  2 settings made for x
  2 settings made for y
  2 settings made for z
change_box all     x final 0 3.230205814101963 y final 0 2.7974402944644936 z final 0 5.141410920778957      xy final -1.6151029070509815 xz final 0.0 yz final 0.0 units box
Changing box ...
  triclinic box = (0 0 0) to (3.2302058 2.7694659 5.0899968) with tilt (-1.5989519 0 0)
  triclinic box = (0 0 0) to (3.2302058 2.7974403 5.0899968) with tilt (-1.5989519 0 0)
  triclinic box = (0 0 0) to (3.2302058 2.7974403 5.1414109) with tilt (-1.5989519 0 0)
  triclinic box = (0 0 0) to (3.2302058 2.7974403 5.1414109) with tilt (-1.6151029 0 0)
  triclinic box = (0 0 0) to (3.2302058 2.7974403 5.1414109) with tilt (-1.6151029 0 0)
  triclinic box = (0 0 0) to (3.2302058 2.7974403 5.1414109) with tilt (-1.6151029 0 0)
echo none
run 0
WARNING: No fixes with time integration, atoms won't move (src/src/verlet.cpp:60)
Per MPI rank memory allocation (min/avg/max) = 3.252 | 3.252 | 3.252 Mbytes
    PotEng          Pxx           E_mol          E_coul    
-12.716808     -6084.1696      0              0            
Loop time of 2.167e-06 on 1 procs for 0 steps with 2 atoms

230.7% CPU use with 1 MPI tasks x no OpenMP threads

MPI task timing breakdown:
Section |  min time  |  avg time  |  max time  |%varavg| %total
---------------------------------------------------------------
Pair    | 0          | 0          | 0          |   0.0 |  0.00
Neigh   | 0          | 0          | 0          |   0.0 |  0.00
Comm    | 0          | 0          | 0          |   0.0 |  0.00
Output  | 0          | 0          | 0          |   0.0 |  0.00
Modify  | 0          | 0          | 0          |   0.0 |  0.00
Other   |            | 2.167e-06  |            |       |100.00

Nlocal:              2 ave           2 max           2 min
Histogram: 1 0 0 0 0 0 0 0 0 0
Nghost:            499 ave         499 max         499 min
Histogram: 1 0 0 0 0 0 0 0 0 0
Neighs:            134 ave         134 max         134 min
Histogram: 1 0 0 0 0 0 0 0 0 0

Total # of neighbors = 134
Ave neighs/atom = 67
Neighbor list builds = 0
Dangerous builds = 0
set atom * x 0.0 y 0.0 z 0.0
Setting atom values ...
  2 settings made for x
  2 settings made for y
  2 settings made for z
change_box all     x final 0 3.2625078722429834 y final 0 2.825414697409139 z final 0 5.192825029986747      xy final -1.6312539361214917 xz final 0.0 yz final 0.0 units box
Changing box ...
  triclinic box = (0 0 0) to (3.2625079 2.7974403 5.1414109) with tilt (-1.6151029 0 0)
  triclinic box = (0 0 0) to (3.2625079 2.8254147 5.1414109) with tilt (-1.6151029 0 0)
  triclinic box = (0 0 0) to (3.2625079 2.8254147 5.192825) with tilt (-1.6151029 0 0)
  triclinic box = (0 0 0) to (3.2625079 2.8254147 5.192825) with tilt (-1.6312539 0 0)
  triclinic box = (0 0 0) to (3.2625079 2.8254147 5.192825) with tilt (-1.6312539 0 0)
  triclinic box = (0 0 0) to (3.2625079 2.8254147 5.192825) with tilt (-1.6312539 0 0)
echo none
run 0
WARNING: No fixes with time integration, atoms won't move (src/src/verlet.cpp:60)
Per MPI rank memory allocation (min/avg/max) = 3.252 | 3.252 | 3.252 Mbytes
    PotEng          Pxx           E_mol          E_coul    
-12.704463     -31617.989      0              0            
Loop time of 9.58e-07 on 1 procs for 0 steps with 2 atoms

104.4% CPU use with 1 MPI tasks x no OpenMP threads

MPI task timing breakdown:
Section |  min time  |  avg time  |  max time  |%varavg| %total
---------------------------------------------------------------
Pair    | 0          | 0          | 0          |   0.0 |  0.00
Neigh   | 0          | 0          | 0          |   0.0 |  0.00
Comm    | 0          | 0          | 0          |   0.0 |  0.00
Output  | 0          | 0          | 0          |   0.0 |  0.00
Modify  | 0          | 0          | 0          |   0.0 |  0.00
Other   |            | 9.58e-07   |            |       |100.00

Nlocal:              2 ave           2 max           2 min
Histogram: 1 0 0 0 0 0 0 0 0 0
Nghost:            499 ave         499 max         499 min
Histogram: 1 0 0 0 0 0 0 0 0 0
Neighs:            134 ave         134 max         134 min
Histogram: 1 0 0 0 0 0 0 0 0 0

Total # of neighbors = 134
Ave neighs/atom = 67
Neighbor list builds = 0
Dangerous builds = 0
set atom * x 0.0 y 0.0 z 0.0
Setting atom values ...
  2 settings made for x
  2 settings made for y
  2 settings made for z
change_box all     x final 0 3.294809930384002 y final 0 2.8533891003537835 z final 0 5.244239139194536      xy final -1.647404965192001 xz final 0.0 yz final 0.0 units box
Changing box ...
  triclinic box = (0 0 0) to (3.2948099 2.8254147 5.192825) with tilt (-1.6312539 0 0)
  triclinic box = (0 0 0) to (3.2948099 2.8533891 5.192825) with tilt (-1.6312539 0 0)
  triclinic box = (0 0 0) to (3.2948099 2.8533891 5.2442391) with tilt (-1.6312539 0 0)
  triclinic box = (0 0 0) to (3.2948099 2.8533891 5.2442391) with tilt (-1.647405 0 0)
  triclinic box = (0 0 0) to (3.2948099 2.8533891 5.2442391) with tilt (-1.647405 0 0)
  triclinic box = (0 0 0) to (3.2948099 2.8533891 5.2442391) with tilt (-1.647405 0 0)
echo none
run 0
WARNING: No fixes with time integration, atoms won't move (src/src/verlet.cpp:60)
Per MPI rank memory allocation (min/avg/max) = 3.252 | 3.252 | 3.252 Mbytes
    PotEng          Pxx           E_mol          E_coul    
-12.66885      -54091.248      0              0            
Loop time of 1.084e-06 on 1 procs for 0 steps with 2 atoms

184.5% CPU use with 1 MPI tasks x no OpenMP threads

MPI task timing breakdown:
Section |  min time  |  avg time  |  max time  |%varavg| %total
---------------------------------------------------------------
Pair    | 0          | 0          | 0          |   0.0 |  0.00
Neigh   | 0          | 0          | 0          |   0.0 |  0.00
Comm    | 0          | 0          | 0          |   0.0 |  0.00
Output  | 0          | 0          | 0          |   0.0 |  0.00
Modify  | 0          | 0          | 0          |   0.0 |  0.00
Other   |            | 1.084e-06  |            |       |100.00

Nlocal:              2 ave           2 max           2 min
Histogram: 1 0 0 0 0 0 0 0 0 0
Nghost:            499 ave         499 max         499 min
Histogram: 1 0 0 0 0 0 0 0 0 0
Neighs:            134 ave         134 max         134 min
Histogram: 1 0 0 0 0 0 0 0 0 0

Total # of neighbors = 134
Ave neighs/atom = 67
Neighbor list builds = 0
Dangerous builds = 0
set atom * x 0.0 y 0.0 z 0.0
Setting atom values ...
  2 settings made for x
  2 settings made for y
  2 settings made for z
change_box all     x final 0 3.3271119885250227 y final 0 2.881363503298429 z final 0 5.295653248402327      xy final -1.6635559942625113 xz final 0.0 yz final 0.0 units box
Changing box ...
  triclinic box = (0 0 0) to (3.327112 2.8533891 5.2442391) with tilt (-1.647405 0 0)
  triclinic box = (0 0 0) to (3.327112 2.8813635 5.2442391) with tilt (-1.647405 0 0)
  triclinic box = (0 0 0) to (3.327112 2.8813635 5.2956532) with tilt (-1.647405 0 0)
  triclinic box = (0 0 0) to (3.327112 2.8813635 5.2956532) with tilt (-1.663556 0 0)
  triclinic box = (0 0 0) to (3.327112 2.8813635 5.2956532) with tilt (-1.663556 0 0)
  triclinic box = (0 0 0) to (3.327112 2.8813635 5.2956532) with tilt (-1.663556 0 0)
echo none
run 0
WARNING: No fixes with time integration, atoms won't move (src/src/verlet.cpp:60)
Per MPI rank memory allocation (min/avg/max) = 3.252 | 3.252 | 3.252 Mbytes
    PotEng          Pxx           E_mol          E_coul    
-12.612028     -73782.097      0              0            
Loop time of 7.08e-07 on 1 procs for 0 steps with 2 atoms

0.0% CPU use with 1 MPI tasks x no OpenMP threads

MPI task timing breakdown:
Section |  min time  |  avg time  |  max time  |%varavg| %total
---------------------------------------------------------------
Pair    | 0          | 0          | 0          |   0.0 |  0.00
Neigh   | 0          | 0          | 0          |   0.0 |  0.00
Comm    | 0          | 0          | 0          |   0.0 |  0.00
Output  | 0          | 0          | 0          |   0.0 |  0.00
Modify  | 0          | 0          | 0          |   0.0 |  0.00
Other   |            | 7.08e-07   |            |       |100.00

Nlocal:              2 ave           2 max           2 min
Histogram: 1 0 0 0 0 0 0 0 0 0
Nghost:            499 ave         499 max         499 min
Histogram: 1 0 0 0 0 0 0 0 0 0
Neighs:            134 ave         134 max         134 min
Histogram: 1 0 0 0 0 0 0 0 0 0

Total # of neighbors = 134
Ave neighs/atom = 67
Neighbor list builds = 0
Dangerous builds = 0
set atom * x 0.0 y 0.0 z 0.0
Setting atom values ...
  2 settings made for x
  2 settings made for y
  2 settings made for z
change_box all     x final 0 3.3594140466660414 y final 0 2.9093379062430733 z final 0 5.347067357610115      xy final -1.6797070233330207 xz final 0.0 yz final 0.0 units box
Changing box ...
  triclinic box = (0 0 0) to (3.359414 2.8813635 5.2956532) with tilt (-1.663556 0 0)
  triclinic box = (0 0 0) to (3.359414 2.9093379 5.2956532) with tilt (-1.663556 0 0)
  triclinic box = (0 0 0) to (3.359414 2.9093379 5.3470674) with tilt (-1.663556 0 0)
  triclinic box = (0 0 0) to (3.359414 2.9093379 5.3470674) with tilt (-1.679707 0 0)
  triclinic box = (0 0 0) to (3.359414 2.9093379 5.3470674) with tilt (-1.679707 0 0)
  triclinic box = (0 0 0) to (3.359414 2.9093379 5.3470674) with tilt (-1.679707 0 0)
echo none
run 0
WARNING: No fixes with time integration, atoms won't move (src/src/verlet.cpp:60)
Per MPI rank memory allocation (min/avg/max) = 3.252 | 3.252 | 3.252 Mbytes
    PotEng          Pxx           E_mol          E_coul    
-12.535764     -92233.491      0              0            
Loop time of 7.91e-07 on 1 procs for 0 steps with 2 atoms

252.8% CPU use with 1 MPI tasks x no OpenMP threads

MPI task timing breakdown:
Section |  min time  |  avg time  |  max time  |%varavg| %total
---------------------------------------------------------------
Pair    | 0          | 0          | 0          |   0.0 |  0.00
Neigh   | 0          | 0          | 0          |   0.0 |  0.00
Comm    | 0          | 0          | 0          |   0.0 |  0.00
Output  | 0          | 0          | 0          |   0.0 |  0.00
Modify  | 0          | 0          | 0          |   0.0 |  0.00
Other   |            | 7.91e-07   |            |       |100.00

Nlocal:              2 ave           2 max           2 min
Histogram: 1 0 0 0 0 0 0 0 0 0
Nghost:            499 ave         499 max         499 min
Histogram: 1 0 0 0 0 0 0 0 0 0
Neighs:            134 ave         134 max         134 min
Histogram: 1 0 0 0 0 0 0 0 0 0

Total # of neighbors = 134
Ave neighs/atom = 67
Neighbor list builds = 0
Dangerous builds = 0
set atom * x 0.0 y 0.0 z 0.0
Setting atom values ...
  2 settings made for x
  2 settings made for y
  2 settings made for z
change_box all     x final 0 3.391716104807062 y final 0 2.937312309187719 z final 0 5.3984814668179055      xy final -1.695858052403531 xz final 0.0 yz final 0.0 units box
Changing box ...
  triclinic box = (0 0 0) to (3.3917161 2.9093379 5.3470674) with tilt (-1.679707 0 0)
  triclinic box = (0 0 0) to (3.3917161 2.9373123 5.3470674) with tilt (-1.679707 0 0)
  triclinic box = (0 0 0) to (3.3917161 2.9373123 5.3984815) with tilt (-1.679707 0 0)
  triclinic box = (0 0 0) to (3.3917161 2.9373123 5.3984815) with tilt (-1.6958581 0 0)
  triclinic box = (0 0 0) to (3.3917161 2.9373123 5.3984815) with tilt (-1.6958581 0 0)
  triclinic box = (0 0 0) to (3.3917161 2.9373123 5.3984815) with tilt (-1.6958581 0 0)
echo none
run 0
WARNING: No fixes with time integration, atoms won't move (src/src/verlet.cpp:60)
Per MPI rank memory allocation (min/avg/max) = 3.252 | 3.252 | 3.252 Mbytes
    PotEng          Pxx           E_mol          E_coul    
-12.43977      -111299.68      0              0            
Loop time of 8.75e-07 on 1 procs for 0 steps with 2 atoms

114.3% CPU use with 1 MPI tasks x no OpenMP threads

MPI task timing breakdown:
Section |  min time  |  avg time  |  max time  |%varavg| %total
---------------------------------------------------------------
Pair    | 0          | 0          | 0          |   0.0 |  0.00
Neigh   | 0          | 0          | 0          |   0.0 |  0.00
Comm    | 0          | 0          | 0          |   0.0 |  0.00
Output  | 0          | 0          | 0          |   0.0 |  0.00
Modify  | 0          | 0          | 0          |   0.0 |  0.00
Other   |            | 8.75e-07   |            |       |100.00

Nlocal:              2 ave           2 max           2 min
Histogram: 1 0 0 0 0 0 0 0 0 0
Nghost:            499 ave         499 max         499 min
Histogram: 1 0 0 0 0 0 0 0 0 0
Neighs:            134 ave         134 max         134 min
Histogram: 1 0 0 0 0 0 0 0 0 0

Total # of neighbors = 134
Ave neighs/atom = 67
Neighbor list builds = 0
Dangerous builds = 0
set atom * x 0.0 y 0.0 z 0.0
Setting atom values ...
  2 settings made for x
  2 settings made for y
  2 settings made for z
change_box all     x final 0 3.424018162948081 y final 0 2.965286712132363 z final 0 5.449895576025694      xy final -1.7120090814740405 xz final 0.0 yz final 0.0 units box
Changing box ...
  triclinic box = (0 0 0) to (3.4240182 2.9373123 5.3984815) with tilt (-1.6958581 0 0)
  triclinic box = (0 0 0) to (3.4240182 2.9652867 5.3984815) with tilt (-1.6958581 0 0)
  triclinic box = (0 0 0) to (3.4240182 2.9652867 5.4498956) with tilt (-1.6958581 0 0)
  triclinic box = (0 0 0) to (3.4240182 2.9652867 5.4498956) with tilt (-1.7120091 0 0)
  triclinic box = (0 0 0) to (3.4240182 2.9652867 5.4498956) with tilt (-1.7120091 0 0)
  triclinic box = (0 0 0) to (3.4240182 2.9652867 5.4498956) with tilt (-1.7120091 0 0)
echo none
run 0
WARNING: No fixes with time integration, atoms won't move (src/src/verlet.cpp:60)
Per MPI rank memory allocation (min/avg/max) = 3.252 | 3.252 | 3.252 Mbytes
    PotEng          Pxx           E_mol          E_coul    
-12.323624     -130156.07      0              0            
Loop time of 8.33e-07 on 1 procs for 0 steps with 2 atoms

120.0% CPU use with 1 MPI tasks x no OpenMP threads

MPI task timing breakdown:
Section |  min time  |  avg time  |  max time  |%varavg| %total
---------------------------------------------------------------
Pair    | 0          | 0          | 0          |   0.0 |  0.00
Neigh   | 0          | 0          | 0          |   0.0 |  0.00
Comm    | 0          | 0          | 0          |   0.0 |  0.00
Output  | 0          | 0          | 0          |   0.0 |  0.00
Modify  | 0          | 0          | 0          |   0.0 |  0.00
Other   |            | 8.33e-07   |            |       |100.00

Nlocal:              2 ave           2 max           2 min
Histogram: 1 0 0 0 0 0 0 0 0 0
Nghost:            499 ave         499 max         499 min
Histogram: 1 0 0 0 0 0 0 0 0 0
Neighs:            134 ave         134 max         134 min
Histogram: 1 0 0 0 0 0 0 0 0 0

Total # of neighbors = 134
Ave neighs/atom = 67
Neighbor list builds = 0
Dangerous builds = 0
set atom * x 0.0 y 0.0 z 0.0
Setting atom values ...
  2 settings made for x
  2 settings made for y
  2 settings made for z
change_box all     x final 0 3.456320221089101 y final 0 2.9932611150770088 z final 0 5.501309685233485      xy final -1.7281601105445505 xz final 0.0 yz final 0.0 units box
Changing box ...
  triclinic box = (0 0 0) to (3.4563202 2.9652867 5.4498956) with tilt (-1.7120091 0 0)
  triclinic box = (0 0 0) to (3.4563202 2.9932611 5.4498956) with tilt (-1.7120091 0 0)
  triclinic box = (0 0 0) to (3.4563202 2.9932611 5.5013097) with tilt (-1.7120091 0 0)
  triclinic box = (0 0 0) to (3.4563202 2.9932611 5.5013097) with tilt (-1.7281601 0 0)
  triclinic box = (0 0 0) to (3.4563202 2.9932611 5.5013097) with tilt (-1.7281601 0 0)
  triclinic box = (0 0 0) to (3.4563202 2.9932611 5.5013097) with tilt (-1.7281601 0 0)
echo none
run 0
WARNING: No fixes with time integration, atoms won't move (src/src/verlet.cpp:60)
Per MPI rank memory allocation (min/avg/max) = 3.252 | 3.252 | 3.252 Mbytes
    PotEng          Pxx           E_mol          E_coul    
-12.187521     -148231.74      0              0            
Loop time of 1e-06 on 1 procs for 0 steps with 2 atoms

100.0% CPU use with 1 MPI tasks x no OpenMP threads

MPI task timing breakdown:
Section |  min time  |  avg time  |  max time  |%varavg| %total
---------------------------------------------------------------
Pair    | 0          | 0          | 0          |   0.0 |  0.00
Neigh   | 0          | 0          | 0          |   0.0 |  0.00
Comm    | 0          | 0          | 0          |   0.0 |  0.00
Output  | 0          | 0          | 0          |   0.0 |  0.00
Modify  | 0          | 0          | 0          |   0.0 |  0.00
Other   |            | 1e-06      |            |       |100.00

Nlocal:              2 ave           2 max           2 min
Histogram: 1 0 0 0 0 0 0 0 0 0
Nghost:            499 ave         499 max         499 min
Histogram: 1 0 0 0 0 0 0 0 0 0
Neighs:            128 ave         128 max         128 min
Histogram: 1 0 0 0 0 0 0 0 0 0

Total # of neighbors = 128
Ave neighs/atom = 64
Neighbor list builds = 0
Dangerous builds = 0
set atom * x 0.0 y 0.0 z 0.0
Setting atom values ...
  2 settings made for x
  2 settings made for y
  2 settings made for z
change_box all     x final 0 3.4886222792301202 y final 0 3.0212355180216535 z final 0 5.552723794441274      xy final -1.7443111396150601 xz final 0.0 yz final 0.0 units box
Changing box ...
  triclinic box = (0 0 0) to (3.4886223 2.9932611 5.5013097) with tilt (-1.7281601 0 0)
  triclinic box = (0 0 0) to (3.4886223 3.0212355 5.5013097) with tilt (-1.7281601 0 0)
  triclinic box = (0 0 0) to (3.4886223 3.0212355 5.5527238) with tilt (-1.7281601 0 0)
  triclinic box = (0 0 0) to (3.4886223 3.0212355 5.5527238) with tilt (-1.7443111 0 0)
  triclinic box = (0 0 0) to (3.4886223 3.0212355 5.5527238) with tilt (-1.7443111 0 0)
  triclinic box = (0 0 0) to (3.4886223 3.0212355 5.5527238) with tilt (-1.7443111 0 0)
echo none
run 0
WARNING: No fixes with time integration, atoms won't move (src/src/verlet.cpp:60)
Per MPI rank memory allocation (min/avg/max) = 3.252 | 3.252 | 3.252 Mbytes
    PotEng          Pxx           E_mol          E_coul    
-12.031999     -165170.53      0              0            
Loop time of 1.167e-06 on 1 procs for 0 steps with 2 atoms

171.4% CPU use with 1 MPI tasks x no OpenMP threads

MPI task timing breakdown:
Section |  min time  |  avg time  |  max time  |%varavg| %total
---------------------------------------------------------------
Pair    | 0          | 0          | 0          |   0.0 |  0.00
Neigh   | 0          | 0          | 0          |   0.0 |  0.00
Comm    | 0          | 0          | 0          |   0.0 |  0.00
Output  | 0          | 0          | 0          |   0.0 |  0.00
Modify  | 0          | 0          | 0          |   0.0 |  0.00
Other   |            | 1.167e-06  |            |       |100.00

Nlocal:              2 ave           2 max           2 min
Histogram: 1 0 0 0 0 0 0 0 0 0
Nghost:            499 ave         499 max         499 min
Histogram: 1 0 0 0 0 0 0 0 0 0
Neighs:            104 ave         104 max         104 min
Histogram: 1 0 0 0 0 0 0 0 0 0

Total # of neighbors = 104
Ave neighs/atom = 52
Neighbor list builds = 0
Dangerous builds = 0
set atom * x 0.0 y 0.0 z 0.0
Setting atom values ...
  2 settings made for x
  2 settings made for y
  2 settings made for z
change_box all     x final 0 3.5209243373711407 y final 0 3.049209920966299 z final 0 5.604137903649065      xy final -1.7604621686855704 xz final 0.0 yz final 0.0 units box
Changing box ...
  triclinic box = (0 0 0) to (3.5209243 3.0212355 5.5527238) with tilt (-1.7443111 0 0)
  triclinic box = (0 0 0) to (3.5209243 3.0492099 5.5527238) with tilt (-1.7443111 0 0)
  triclinic box = (0 0 0) to (3.5209243 3.0492099 5.6041379) with tilt (-1.7443111 0 0)
  triclinic box = (0 0 0) to (3.5209243 3.0492099 5.6041379) with tilt (-1.7604622 0 0)
  triclinic box = (0 0 0) to (3.5209243 3.0492099 5.6041379) with tilt (-1.7604622 0 0)
  triclinic box = (0 0 0) to (3.5209243 3.0492099 5.6041379) with tilt (-1.7604622 0 0)
echo none
run 0
WARNING: No fixes with time integration, atoms won't move (src/src/verlet.cpp:60)
Per MPI rank memory allocation (min/avg/max) = 3.252 | 3.252 | 3.252 Mbytes
    PotEng          Pxx           E_mol          E_coul    
-11.857788     -180717.84      0              0            
Loop time of 1.042e-06 on 1 procs for 0 steps with 2 atoms

191.9% CPU use with 1 MPI tasks x no OpenMP threads

MPI task timing breakdown:
Section |  min time  |  avg time  |  max time  |%varavg| %total
---------------------------------------------------------------
Pair    | 0          | 0          | 0          |   0.0 |  0.00
Neigh   | 0          | 0          | 0          |   0.0 |  0.00
Comm    | 0          | 0          | 0          |   0.0 |  0.00
Output  | 0          | 0          | 0          |   0.0 |  0.00
Modify  | 0          | 0          | 0          |   0.0 |  0.00
Other   |            | 1.042e-06  |            |       |100.00

Nlocal:              2 ave           2 max           2 min
Histogram: 1 0 0 0 0 0 0 0 0 0
Nghost:            499 ave         499 max         499 min
Histogram: 1 0 0 0 0 0 0 0 0 0
Neighs:            104 ave         104 max         104 min
Histogram: 1 0 0 0 0 0 0 0 0 0

Total # of neighbors = 104
Ave neighs/atom = 52
Neighbor list builds = 0
Dangerous builds = 0
set atom * x 0.0 y 0.0 z 0.0
Setting atom values ...
  2 settings made for x
  2 settings made for y
  2 settings made for z
change_box all     x final 0 3.5532263955121595 y final 0 3.0771843239109433 z final 0 5.655552012856853      xy final -1.7766131977560797 xz final 0.0 yz final 0.0 units box
Changing box ...
  triclinic box = (0 0 0) to (3.5532264 3.0492099 5.6041379) with tilt (-1.7604622 0 0)
  triclinic box = (0 0 0) to (3.5532264 3.0771843 5.6041379) with tilt (-1.7604622 0 0)
  triclinic box = (0 0 0) to (3.5532264 3.0771843 5.655552) with tilt (-1.7604622 0 0)
  triclinic box = (0 0 0) to (3.5532264 3.0771843 5.655552) with tilt (-1.7766132 0 0)
  triclinic box = (0 0 0) to (3.5532264 3.0771843 5.655552) with tilt (-1.7766132 0 0)
  triclinic box = (0 0 0) to (3.5532264 3.0771843 5.655552) with tilt (-1.7766132 0 0)
echo none
run 0
WARNING: No fixes with time integration, atoms won't move (src/src/verlet.cpp:60)
Per MPI rank memory allocation (min/avg/max) = 3.236 | 3.236 | 3.236 Mbytes
    PotEng          Pxx           E_mol          E_coul    
-11.6658       -194618.36      0              0            
Loop time of 1.209e-06 on 1 procs for 0 steps with 2 atoms

165.4% CPU use with 1 MPI tasks x no OpenMP threads

MPI task timing breakdown:
Section |  min time  |  avg time  |  max time  |%varavg| %total
---------------------------------------------------------------
Pair    | 0          | 0          | 0          |   0.0 |  0.00
Neigh   | 0          | 0          | 0          |   0.0 |  0.00
Comm    | 0          | 0          | 0          |   0.0 |  0.00
Output  | 0          | 0          | 0          |   0.0 |  0.00
Modify  | 0          | 0          | 0          |   0.0 |  0.00
Other   |            | 1.209e-06  |            |       |100.00

Nlocal:              2 ave           2 max           2 min
Histogram: 1 0 0 0 0 0 0 0 0 0
Nghost:            387 ave         387 max         387 min
Histogram: 1 0 0 0 0 0 0 0 0 0
Neighs:            104 ave         104 max         104 min
Histogram: 1 0 0 0 0 0 0 0 0 0

Total # of neighbors = 104
Ave neighs/atom = 52
Neighbor list builds = 0
Dangerous builds = 0
set atom * x 0.0 y 0.0 z 0.0
Setting atom values ...
  2 settings made for x
  2 settings made for y
  2 settings made for z
change_box all     x final 0 9.69061744230589 y final 0 8.39232088339348 z final 0 15.424232762336871      xy final -4.845308721152945 xz final 0.0 yz final 0.0 units box
Changing box ...
  triclinic box = (0 0 0) to (9.6906174 3.0771843 5.655552) with tilt (-1.7766132 0 0)
  triclinic box = (0 0 0) to (9.6906174 8.3923209 5.655552) with tilt (-1.7766132 0 0)
  triclinic box = (0 0 0) to (9.6906174 8.3923209 15.424233) with tilt (-1.7766132 0 0)
  triclinic box = (0 0 0) to (9.6906174 8.3923209 15.424233) with tilt (-4.8453087 0 0)
  triclinic box = (0 0 0) to (9.6906174 8.3923209 15.424233) with tilt (-4.8453087 0 0)
  triclinic box = (0 0 0) to (9.6906174 8.3923209 15.424233) with tilt (-4.8453087 0 0)
echo none
Created 52 atoms
  using lattice units in triclinic box = (0 0 0) to (9.6906174 8.3923209 15.424233) with tilt (-4.8453087 0 0)
  create_atoms CPU = 0.000 seconds
Setting atom values ...
  1 settings made for type
Setting atom values ...
  1 settings made for type
Setting atom values ...
  1 settings made for type
Setting atom values ...
  1 settings made for type
Setting atom values ...
  1 settings made for type
Setting atom values ...
  1 settings made for type
Setting atom values ...
  1 settings made for type
Setting atom values ...
  1 settings made for type
Setting atom values ...
  1 settings made for type
Setting atom values ...
  1 settings made for type
Setting atom values ...
  1 settings made for type
Setting atom values ...
  1 settings made for type
Setting atom values ...
  1 settings made for type
Setting atom values ...
  1 settings made for type
Setting atom values ...
  1 settings made for type
Setting atom values ...
  1 settings made for type
Setting atom values ...
  1 settings made for type
Setting atom values ...
  1 settings made for type
Setting atom values ...
  1 settings made for type
Setting atom values ...
  1 settings made for type
Setting atom values ...
  1 settings made for type
Setting atom values ...
  1 settings made for type
Setting atom values ...
  1 settings made for type
Setting atom values ...
  1 settings made for type
Setting atom values ...
  1 settings made for type
Setting atom values ...
  1 settings made for type
Setting atom values ...
  1 settings made for type
Setting atom values ...
  1 settings made for type
Setting atom values ...
  1 settings made for type
Setting atom values ...
  1 settings made for type
Setting atom values ...
  1 settings made for type
Setting atom values ...
  1 settings made for type
Setting atom values ...
  1 settings made for type
Setting atom values ...
  1 settings made for type
Setting atom values ...
  1 settings made for type
Setting atom values ...
  1 settings made for type
Setting atom values ...
  1 settings made for type
Setting atom values ...
  1 settings made for type
Setting atom values ...
  1 settings made for type
Setting atom values ...
  1 settings made for type
Setting atom values ...
  1 settings made for type
Setting atom values ...
  1 settings made for type
Setting atom values ...
  1 settings made for type
Setting atom values ...
  1 settings made for type
Setting atom values ...
  1 settings made for type
Setting atom values ...
  1 settings made for type
Setting atom values ...
  1 settings made for type
Setting atom values ...
  1 settings made for type
Setting atom values ...
  1 settings made for type
Setting atom values ...
  1 settings made for type
Setting atom values ...
  1 settings made for type
Setting atom values ...
  1 settings made for type
run 0
WARNING: No fixes with time integration, atoms won't move (src/src/verlet.cpp:60)
Per MPI rank memory allocation (min/avg/max) = 3.256 | 3.256 | 3.256 Mbytes
    PotEng          Pxx           E_mol          E_coul    
-343.35382     -6084.1696      0              0            
Loop time of 1e-06 on 1 procs for 0 steps with 54 atoms

0.0% CPU use with 1 MPI tasks x no OpenMP threads

MPI task timing breakdown:
Section |  min time  |  avg time  |  max time  |%varavg| %total
---------------------------------------------------------------
Pair    | 0          | 0          | 0          |   0.0 |  0.00
Neigh   | 0          | 0          | 0          |   0.0 |  0.00
Comm    | 0          | 0          | 0          |   0.0 |  0.00
Output  | 0          | 0          | 0          |   0.0 |  0.00
Modify  | 0          | 0          | 0          |   0.0 |  0.00
Other   |            | 1e-06      |            |       |100.00

Nlocal:             54 ave          54 max          54 min
Histogram: 1 0 0 0 0 0 0 0 0 0
Nghost:           1113 ave        1113 max        1113 min
Histogram: 1 0 0 0 0 0 0 0 0 0
Neighs:           3618 ave        3618 max        3618 min
Histogram: 1 0 0 0 0 0 0 0 0 0

Total # of neighbors = 3618
Ave neighs/atom = 67
Neighbor list builds = 0
Dangerous builds = 0
set atom * x 0.0 y 0.0 z 0.0
Setting atom values ...
  54 settings made for x
  54 settings made for y
  54 settings made for z
change_box all     x final 0 9.496805093459772 y final 0 8.39232088339348 z final 0 15.424232762336871      xy final -4.748402546729886 xz final 0.0 yz final 0.0 units box
Changing box ...
WARNING: Triclinic box skew is large (src/src/domain.cpp:224)
  triclinic box = (0 0 0) to (9.4968051 8.3923209 15.424233) with tilt (-4.8453087 0 0)
WARNING: Triclinic box skew is large (src/src/domain.cpp:224)
  triclinic box = (0 0 0) to (9.4968051 8.3923209 15.424233) with tilt (-4.8453087 0 0)
WARNING: Triclinic box skew is large (src/src/domain.cpp:224)
  triclinic box = (0 0 0) to (9.4968051 8.3923209 15.424233) with tilt (-4.8453087 0 0)
  triclinic box = (0 0 0) to (9.4968051 8.3923209 15.424233) with tilt (-4.7484025 0 0)
  triclinic box = (0 0 0) to (9.4968051 8.3923209 15.424233) with tilt (-4.7484025 0 0)
  triclinic box = (0 0 0) to (9.4968051 8.3923209 15.424233) with tilt (-4.7484025 0 0)
echo none
run 0
WARNING: No fixes with time integration, atoms won't move (src/src/verlet.cpp:60)
Per MPI rank memory allocation (min/avg/max) = 3.256 | 3.256 | 3.256 Mbytes
    PotEng          Pxx           E_mol          E_coul    
-343.23235      23560.005      0              0            
Loop time of 9.17e-07 on 1 procs for 0 steps with 54 atoms

0.0% CPU use with 1 MPI tasks x no OpenMP threads

MPI task timing breakdown:
Section |  min time  |  avg time  |  max time  |%varavg| %total
---------------------------------------------------------------
Pair    | 0          | 0          | 0          |   0.0 |  0.00
Neigh   | 0          | 0          | 0          |   0.0 |  0.00
Comm    | 0          | 0          | 0          |   0.0 |  0.00
Output  | 0          | 0          | 0          |   0.0 |  0.00
Modify  | 0          | 0          | 0          |   0.0 |  0.00
Other   |            | 9.17e-07   |            |       |100.00

Nlocal:             54 ave          54 max          54 min
Histogram: 1 0 0 0 0 0 0 0 0 0
Nghost:           1113 ave        1113 max        1113 min
Histogram: 1 0 0 0 0 0 0 0 0 0
Neighs:           3942 ave        3942 max        3942 min
Histogram: 1 0 0 0 0 0 0 0 0 0

Total # of neighbors = 3942
Ave neighs/atom = 73
Neighbor list builds = 0
Dangerous builds = 0
set atom * x 0.0 y 0.0 z 0.0
Setting atom values ...
  54 settings made for x
  54 settings made for y
  54 settings made for z
change_box all     x final 0 9.59371126788283 y final 0 8.39232088339348 z final 0 15.424232762336871      xy final -4.796855633941415 xz final 0.0 yz final 0.0 units box
Changing box ...
  triclinic box = (0 0 0) to (9.5937113 8.3923209 15.424233) with tilt (-4.7484025 0 0)
  triclinic box = (0 0 0) to (9.5937113 8.3923209 15.424233) with tilt (-4.7484025 0 0)
  triclinic box = (0 0 0) to (9.5937113 8.3923209 15.424233) with tilt (-4.7484025 0 0)
  triclinic box = (0 0 0) to (9.5937113 8.3923209 15.424233) with tilt (-4.7968556 0 0)
  triclinic box = (0 0 0) to (9.5937113 8.3923209 15.424233) with tilt (-4.7968556 0 0)
  triclinic box = (0 0 0) to (9.5937113 8.3923209 15.424233) with tilt (-4.7968556 0 0)
echo none
run 0
WARNING: No fixes with time integration, atoms won't move (src/src/verlet.cpp:60)
Per MPI rank memory allocation (min/avg/max) = 3.256 | 3.256 | 3.256 Mbytes
    PotEng          Pxx           E_mol          E_coul    
-343.3508       7902.3869      0              0            
Loop time of 1.042e-06 on 1 procs for 0 steps with 54 atoms

96.0% CPU use with 1 MPI tasks x no OpenMP threads

MPI task timing breakdown:
Section |  min time  |  avg time  |  max time  |%varavg| %total
---------------------------------------------------------------
Pair    | 0          | 0          | 0          |   0.0 |  0.00
Neigh   | 0          | 0          | 0          |   0.0 |  0.00
Comm    | 0          | 0          | 0          |   0.0 |  0.00
Output  | 0          | 0          | 0          |   0.0 |  0.00
Modify  | 0          | 0          | 0          |   0.0 |  0.00
Other   |            | 1.042e-06  |            |       |100.00

Nlocal:             54 ave          54 max          54 min
Histogram: 1 0 0 0 0 0 0 0 0 0
Nghost:           1113 ave        1113 max        1113 min
Histogram: 1 0 0 0 0 0 0 0 0 0
Neighs:           3942 ave        3942 max        3942 min
Histogram: 1 0 0 0 0 0 0 0 0 0

Total # of neighbors = 3942
Ave neighs/atom = 73
Neighbor list builds = 0
Dangerous builds = 0
set atom * x 0.0 y 0.0 z 0.0
Setting atom values ...
  54 settings made for x
  54 settings made for y
  54 settings made for z
change_box all     x final 0 9.69061744230589 y final 0 8.39232088339348 z final 0 15.424232762336871      xy final -4.845308721152945 xz final 0.0 yz final 0.0 units box
Changing box ...
  triclinic box = (0 0 0) to (9.6906174 8.3923209 15.424233) with tilt (-4.7968556 0 0)
  triclinic box = (0 0 0) to (9.6906174 8.3923209 15.424233) with tilt (-4.7968556 0 0)
  triclinic box = (0 0 0) to (9.6906174 8.3923209 15.424233) with tilt (-4.7968556 0 0)
  triclinic box = (0 0 0) to (9.6906174 8.3923209 15.424233) with tilt (-4.8453087 0 0)
  triclinic box = (0 0 0) to (9.6906174 8.3923209 15.424233) with tilt (-4.8453087 0 0)
  triclinic box = (0 0 0) to (9.6906174 8.3923209 15.424233) with tilt (-4.8453087 0 0)
echo none
run 0
WARNING: No fixes with time integration, atoms won't move (src/src/verlet.cpp:60)
Per MPI rank memory allocation (min/avg/max) = 3.256 | 3.256 | 3.256 Mbytes
    PotEng          Pxx           E_mol          E_coul    
-343.35382     -6084.1696      0              0            
Loop time of 7.5e-07 on 1 procs for 0 steps with 54 atoms

0.0% CPU use with 1 MPI tasks x no OpenMP threads

MPI task timing breakdown:
Section |  min time  |  avg time  |  max time  |%varavg| %total
---------------------------------------------------------------
Pair    | 0          | 0          | 0          |   0.0 |  0.00
Neigh   | 0          | 0          | 0          |   0.0 |  0.00
Comm    | 0          | 0          | 0          |   0.0 |  0.00
Output  | 0          | 0          | 0          |   0.0 |  0.00
Modify  | 0          | 0          | 0          |   0.0 |  0.00
Other   |            | 7.5e-07    |            |       |100.00

Nlocal:             54 ave          54 max          54 min
Histogram: 1 0 0 0 0 0 0 0 0 0
Nghost:           1113 ave        1113 max        1113 min
Histogram: 1 0 0 0 0 0 0 0 0 0
Neighs:           3618 ave        3618 max        3618 min
Histogram: 1 0 0 0 0 0 0 0 0 0

Total # of neighbors = 3618
Ave neighs/atom = 67
Neighbor list builds = 0
Dangerous builds = 0
set atom * x 0.0 y 0.0 z 0.0
Setting atom values ...
  54 settings made for x
  54 settings made for y
  54 settings made for z
change_box all     x final 0 9.787523616728949 y final 0 8.39232088339348 z final 0 15.424232762336871      xy final -4.8937618083644745 xz final 0.0 yz final 0.0 units box
Changing box ...
  triclinic box = (0 0 0) to (9.7875236 8.3923209 15.424233) with tilt (-4.8453087 0 0)
  triclinic box = (0 0 0) to (9.7875236 8.3923209 15.424233) with tilt (-4.8453087 0 0)
  triclinic box = (0 0 0) to (9.7875236 8.3923209 15.424233) with tilt (-4.8453087 0 0)
  triclinic box = (0 0 0) to (9.7875236 8.3923209 15.424233) with tilt (-4.8937618 0 0)
  triclinic box = (0 0 0) to (9.7875236 8.3923209 15.424233) with tilt (-4.8937618 0 0)
  triclinic box = (0 0 0) to (9.7875236 8.3923209 15.424233) with tilt (-4.8937618 0 0)
echo none
run 0
WARNING: No fixes with time integration, atoms won't move (src/src/verlet.cpp:60)
Per MPI rank memory allocation (min/avg/max) = 3.256 | 3.256 | 3.256 Mbytes
    PotEng          Pxx           E_mol          E_coul    
-343.2553      -18877.783      0              0            
Loop time of 9.58e-07 on 1 procs for 0 steps with 54 atoms

208.8% CPU use with 1 MPI tasks x no OpenMP threads

MPI task timing breakdown:
Section |  min time  |  avg time  |  max time  |%varavg| %total
---------------------------------------------------------------
Pair    | 0          | 0          | 0          |   0.0 |  0.00
Neigh   | 0          | 0          | 0          |   0.0 |  0.00
Comm    | 0          | 0          | 0          |   0.0 |  0.00
Output  | 0          | 0          | 0          |   0.0 |  0.00
Modify  | 0          | 0          | 0          |   0.0 |  0.00
Other   |            | 9.58e-07   |            |       |100.00

Nlocal:             54 ave          54 max          54 min
Histogram: 1 0 0 0 0 0 0 0 0 0
Nghost:           1113 ave        1113 max        1113 min
Histogram: 1 0 0 0 0 0 0 0 0 0
Neighs:           3618 ave        3618 max        3618 min
Histogram: 1 0 0 0 0 0 0 0 0 0

Total # of neighbors = 3618
Ave neighs/atom = 67
Neighbor list builds = 0
Dangerous builds = 0
set atom * x 0.0 y 0.0 z 0.0
Setting atom values ...
  54 settings made for x
  54 settings made for y
  54 settings made for z
change_box all     x final 0 9.884429791152007 y final 0 8.39232088339348 z final 0 15.424232762336871      xy final -4.9422148955760035 xz final 0.0 yz final 0.0 units box
Changing box ...
  triclinic box = (0 0 0) to (9.8844298 8.3923209 15.424233) with tilt (-4.8937618 0 0)
  triclinic box = (0 0 0) to (9.8844298 8.3923209 15.424233) with tilt (-4.8937618 0 0)
  triclinic box = (0 0 0) to (9.8844298 8.3923209 15.424233) with tilt (-4.8937618 0 0)
  triclinic box = (0 0 0) to (9.8844298 8.3923209 15.424233) with tilt (-4.9422149 0 0)
  triclinic box = (0 0 0) to (9.8844298 8.3923209 15.424233) with tilt (-4.9422149 0 0)
  triclinic box = (0 0 0) to (9.8844298 8.3923209 15.424233) with tilt (-4.9422149 0 0)
echo none
run 0
WARNING: No fixes with time integration, atoms won't move (src/src/verlet.cpp:60)
Per MPI rank memory allocation (min/avg/max) = 3.256 | 3.256 | 3.256 Mbytes
    PotEng          Pxx           E_mol          E_coul    
-343.06103     -30589.212      0              0            
Loop time of 9.17e-07 on 1 procs for 0 steps with 54 atoms

218.1% CPU use with 1 MPI tasks x no OpenMP threads

MPI task timing breakdown:
Section |  min time  |  avg time  |  max time  |%varavg| %total
---------------------------------------------------------------
Pair    | 0          | 0          | 0          |   0.0 |  0.00
Neigh   | 0          | 0          | 0          |   0.0 |  0.00
Comm    | 0          | 0          | 0          |   0.0 |  0.00
Output  | 0          | 0          | 0          |   0.0 |  0.00
Modify  | 0          | 0          | 0          |   0.0 |  0.00
Other   |            | 9.17e-07   |            |       |100.00

Nlocal:             54 ave          54 max          54 min
Histogram: 1 0 0 0 0 0 0 0 0 0
Nghost:           1113 ave        1113 max        1113 min
Histogram: 1 0 0 0 0 0 0 0 0 0
Neighs:           3618 ave        3618 max        3618 min
Histogram: 1 0 0 0 0 0 0 0 0 0

Total # of neighbors = 3618
Ave neighs/atom = 67
Neighbor list builds = 0
Dangerous builds = 0
set atom * x 0.0 y 0.0 z 0.0
Setting atom values ...
  54 settings made for x
  54 settings made for y
  54 settings made for z
change_box all     x final 0 9.69061744230589 y final 0 8.39232088339348 z final 0 15.115748107090134      xy final -4.845308721152945 xz final 0.0 yz final 0.0 units box
Changing box ...
WARNING: Triclinic box skew is large (src/src/domain.cpp:224)
  triclinic box = (0 0 0) to (9.6906174 8.3923209 15.424233) with tilt (-4.9422149 0 0)
WARNING: Triclinic box skew is large (src/src/domain.cpp:224)
  triclinic box = (0 0 0) to (9.6906174 8.3923209 15.424233) with tilt (-4.9422149 0 0)
WARNING: Triclinic box skew is large (src/src/domain.cpp:224)
  triclinic box = (0 0 0) to (9.6906174 8.3923209 15.115748) with tilt (-4.9422149 0 0)
  triclinic box = (0 0 0) to (9.6906174 8.3923209 15.115748) with tilt (-4.8453087 0 0)
  triclinic box = (0 0 0) to (9.6906174 8.3923209 15.115748) with tilt (-4.8453087 0 0)
  triclinic box = (0 0 0) to (9.6906174 8.3923209 15.115748) with tilt (-4.8453087 0 0)
echo none
run 0
WARNING: No fixes with time integration, atoms won't move (src/src/verlet.cpp:60)
Per MPI rank memory allocation (min/avg/max) = 3.256 | 3.256 | 3.256 Mbytes
    PotEng          Pxx           E_mol          E_coul    
-342.86429      8838.3513      0              0            
Loop time of 1e-06 on 1 procs for 0 steps with 54 atoms

0.0% CPU use with 1 MPI tasks x no OpenMP threads

MPI task timing breakdown:
Section |  min time  |  avg time  |  max time  |%varavg| %total
---------------------------------------------------------------
Pair    | 0          | 0          | 0          |   0.0 |  0.00
Neigh   | 0          | 0          | 0          |   0.0 |  0.00
Comm    | 0          | 0          | 0          |   0.0 |  0.00
Output  | 0          | 0          | 0          |   0.0 |  0.00
Modify  | 0          | 0          | 0          |   0.0 |  0.00
Other   |            | 1e-06      |            |       |100.00

Nlocal:             54 ave          54 max          54 min
Histogram: 1 0 0 0 0 0 0 0 0 0
Nghost:           1113 ave        1113 max        1113 min
Histogram: 1 0 0 0 0 0 0 0 0 0
Neighs:           3942 ave        3942 max        3942 min
Histogram: 1 0 0 0 0 0 0 0 0 0

Total # of neighbors = 3942
Ave neighs/atom = 73
Neighbor list builds = 0
Dangerous builds = 0
set atom * x 0.0 y 0.0 z 0.0
Setting atom values ...
  54 settings made for x
  54 settings made for y
  54 settings made for z
change_box all     x final 0 9.69061744230589 y final 0 8.39232088339348 z final 0 15.269990434713502      xy final -4.845308721152945 xz final 0.0 yz final 0.0 units box
Changing box ...
  triclinic box = (0 0 0) to (9.6906174 8.3923209 15.115748) with tilt (-4.8453087 0 0)
  triclinic box = (0 0 0) to (9.6906174 8.3923209 15.115748) with tilt (-4.8453087 0 0)
  triclinic box = (0 0 0) to (9.6906174 8.3923209 15.26999) with tilt (-4.8453087 0 0)
  triclinic box = (0 0 0) to (9.6906174 8.3923209 15.26999) with tilt (-4.8453087 0 0)
  triclinic box = (0 0 0) to (9.6906174 8.3923209 15.26999) with tilt (-4.8453087 0 0)
  triclinic box = (0 0 0) to (9.6906174 8.3923209 15.26999) with tilt (-4.8453087 0 0)
echo none
run 0
WARNING: No fixes with time integration, atoms won't move (src/src/verlet.cpp:60)
Per MPI rank memory allocation (min/avg/max) = 3.256 | 3.256 | 3.256 Mbytes
    PotEng          Pxx           E_mol          E_coul    
-343.18562      1145.0619      0              0            
Loop time of 8.34e-07 on 1 procs for 0 steps with 54 atoms

119.9% CPU use with 1 MPI tasks x no OpenMP threads

MPI task timing breakdown:
Section |  min time  |  avg time  |  max time  |%varavg| %total
---------------------------------------------------------------
Pair    | 0          | 0          | 0          |   0.0 |  0.00
Neigh   | 0          | 0          | 0          |   0.0 |  0.00
Comm    | 0          | 0          | 0          |   0.0 |  0.00
Output  | 0          | 0          | 0          |   0.0 |  0.00
Modify  | 0          | 0          | 0          |   0.0 |  0.00
Other   |            | 8.34e-07   |            |       |100.00

Nlocal:             54 ave          54 max          54 min
Histogram: 1 0 0 0 0 0 0 0 0 0
Nghost:           1113 ave        1113 max        1113 min
Histogram: 1 0 0 0 0 0 0 0 0 0
Neighs:           3942 ave        3942 max        3942 min
Histogram: 1 0 0 0 0 0 0 0 0 0

Total # of neighbors = 3942
Ave neighs/atom = 73
Neighbor list builds = 0
Dangerous builds = 0
set atom * x 0.0 y 0.0 z 0.0
Setting atom values ...
  54 settings made for x
  54 settings made for y
  54 settings made for z
change_box all     x final 0 9.69061744230589 y final 0 8.39232088339348 z final 0 15.424232762336871      xy final -4.845308721152945 xz final 0.0 yz final 0.0 units box
Changing box ...
  triclinic box = (0 0 0) to (9.6906174 8.3923209 15.26999) with tilt (-4.8453087 0 0)
  triclinic box = (0 0 0) to (9.6906174 8.3923209 15.26999) with tilt (-4.8453087 0 0)
  triclinic box = (0 0 0) to (9.6906174 8.3923209 15.424233) with tilt (-4.8453087 0 0)
  triclinic box = (0 0 0) to (9.6906174 8.3923209 15.424233) with tilt (-4.8453087 0 0)
  triclinic box = (0 0 0) to (9.6906174 8.3923209 15.424233) with tilt (-4.8453087 0 0)
  triclinic box = (0 0 0) to (9.6906174 8.3923209 15.424233) with tilt (-4.8453087 0 0)
echo none
run 0
WARNING: No fixes with time integration, atoms won't move (src/src/verlet.cpp:60)
Per MPI rank memory allocation (min/avg/max) = 3.256 | 3.256 | 3.256 Mbytes
    PotEng          Pxx           E_mol          E_coul    
-343.35382     -6084.1696      0              0            
Loop time of 8.75e-07 on 1 procs for 0 steps with 54 atoms

228.6% CPU use with 1 MPI tasks x no OpenMP threads

MPI task timing breakdown:
Section |  min time  |  avg time  |  max time  |%varavg| %total
---------------------------------------------------------------
Pair    | 0          | 0          | 0          |   0.0 |  0.00
Neigh   | 0          | 0          | 0          |   0.0 |  0.00
Comm    | 0          | 0          | 0          |   0.0 |  0.00
Output  | 0          | 0          | 0          |   0.0 |  0.00
Modify  | 0          | 0          | 0          |   0.0 |  0.00
Other   |            | 8.75e-07   |            |       |100.00

Nlocal:             54 ave          54 max          54 min
Histogram: 1 0 0 0 0 0 0 0 0 0
Nghost:           1113 ave        1113 max        1113 min
Histogram: 1 0 0 0 0 0 0 0 0 0
Neighs:           3618 ave        3618 max        3618 min
Histogram: 1 0 0 0 0 0 0 0 0 0

Total # of neighbors = 3618
Ave neighs/atom = 67
Neighbor list builds = 0
Dangerous builds = 0
set atom * x 0.0 y 0.0 z 0.0
Setting atom values ...
  54 settings made for x
  54 settings made for y
  54 settings made for z
change_box all     x final 0 9.69061744230589 y final 0 8.39232088339348 z final 0 15.57847508996024      xy final -4.845308721152945 xz final 0.0 yz final 0.0 units box
Changing box ...
  triclinic box = (0 0 0) to (9.6906174 8.3923209 15.424233) with tilt (-4.8453087 0 0)
  triclinic box = (0 0 0) to (9.6906174 8.3923209 15.424233) with tilt (-4.8453087 0 0)
  triclinic box = (0 0 0) to (9.6906174 8.3923209 15.578475) with tilt (-4.8453087 0 0)
  triclinic box = (0 0 0) to (9.6906174 8.3923209 15.578475) with tilt (-4.8453087 0 0)
  triclinic box = (0 0 0) to (9.6906174 8.3923209 15.578475) with tilt (-4.8453087 0 0)
  triclinic box = (0 0 0) to (9.6906174 8.3923209 15.578475) with tilt (-4.8453087 0 0)
echo none
run 0
WARNING: No fixes with time integration, atoms won't move (src/src/verlet.cpp:60)
Per MPI rank memory allocation (min/avg/max) = 3.256 | 3.256 | 3.256 Mbytes
    PotEng          Pxx           E_mol          E_coul    
-343.37707     -12858.516      0              0            
Loop time of 1e-06 on 1 procs for 0 steps with 54 atoms

100.0% CPU use with 1 MPI tasks x no OpenMP threads

MPI task timing breakdown:
Section |  min time  |  avg time  |  max time  |%varavg| %total
---------------------------------------------------------------
Pair    | 0          | 0          | 0          |   0.0 |  0.00
Neigh   | 0          | 0          | 0          |   0.0 |  0.00
Comm    | 0          | 0          | 0          |   0.0 |  0.00
Output  | 0          | 0          | 0          |   0.0 |  0.00
Modify  | 0          | 0          | 0          |   0.0 |  0.00
Other   |            | 1e-06      |            |       |100.00

Nlocal:             54 ave          54 max          54 min
Histogram: 1 0 0 0 0 0 0 0 0 0
Nghost:           1113 ave        1113 max        1113 min
Histogram: 1 0 0 0 0 0 0 0 0 0
Neighs:           3618 ave        3618 max        3618 min
Histogram: 1 0 0 0 0 0 0 0 0 0

Total # of neighbors = 3618
Ave neighs/atom = 67
Neighbor list builds = 0
Dangerous builds = 0
set atom * x 0.0 y 0.0 z 0.0
Setting atom values ...
  54 settings made for x
  54 settings made for y
  54 settings made for z
change_box all     x final 0 9.69061744230589 y final 0 8.39232088339348 z final 0 15.732717417583608      xy final -4.845308721152945 xz final 0.0 yz final 0.0 units box
Changing box ...
  triclinic box = (0 0 0) to (9.6906174 8.3923209 15.578475) with tilt (-4.8453087 0 0)
  triclinic box = (0 0 0) to (9.6906174 8.3923209 15.578475) with tilt (-4.8453087 0 0)
  triclinic box = (0 0 0) to (9.6906174 8.3923209 15.732717) with tilt (-4.8453087 0 0)
  triclinic box = (0 0 0) to (9.6906174 8.3923209 15.732717) with tilt (-4.8453087 0 0)
  triclinic box = (0 0 0) to (9.6906174 8.3923209 15.732717) with tilt (-4.8453087 0 0)
  triclinic box = (0 0 0) to (9.6906174 8.3923209 15.732717) with tilt (-4.8453087 0 0)
echo none
run 0
WARNING: No fixes with time integration, atoms won't move (src/src/verlet.cpp:60)
Per MPI rank memory allocation (min/avg/max) = 3.256 | 3.256 | 3.256 Mbytes
    PotEng          Pxx           E_mol          E_coul    
-343.26396     -19178.515      0              0            
Loop time of 8.75e-07 on 1 procs for 0 steps with 54 atoms

114.3% CPU use with 1 MPI tasks x no OpenMP threads

MPI task timing breakdown:
Section |  min time  |  avg time  |  max time  |%varavg| %total
---------------------------------------------------------------
Pair    | 0          | 0          | 0          |   0.0 |  0.00
Neigh   | 0          | 0          | 0          |   0.0 |  0.00
Comm    | 0          | 0          | 0          |   0.0 |  0.00
Output  | 0          | 0          | 0          |   0.0 |  0.00
Modify  | 0          | 0          | 0          |   0.0 |  0.00
Other   |            | 8.75e-07   |            |       |100.00

Nlocal:             54 ave          54 max          54 min
Histogram: 1 0 0 0 0 0 0 0 0 0
Nghost:           1113 ave        1113 max        1113 min
Histogram: 1 0 0 0 0 0 0 0 0 0
Neighs:           3618 ave        3618 max        3618 min
Histogram: 1 0 0 0 0 0 0 0 0 0

Total # of neighbors = 3618
Ave neighs/atom = 67
Neighbor list builds = 0
Dangerous builds = 0
set atom * x 0.0 y 0.0 z 0.0
Setting atom values ...
  54 settings made for x
  54 settings made for y
  54 settings made for z
change_box all     x final 0 9.69061744230589 y final 0 8.392337668018463 z final 0 15.424201913963891      xy final -4.845308721152945 xz final 0.0 yz final 0.030848403827927782 units box
Changing box ...
  triclinic box = (0 0 0) to (9.6906174 8.3923209 15.732717) with tilt (-4.8453087 0 0)
  triclinic box = (0 0 0) to (9.6906174 8.3923377 15.732717) with tilt (-4.8453087 0 0)
  triclinic box = (0 0 0) to (9.6906174 8.3923377 15.424202) with tilt (-4.8453087 0 0)
[...]
  triclinic box = (0 0 0) to (11.033116 11.973859 31.856023) with tilt (-11.033116 0 0)
echo none
run 0
Per MPI rank memory allocation (min/avg/max) = 3.31 | 3.31 | 3.31 Mbytes
    PotEng          Pxx           E_mol          E_coul    
-483.84388     -1593.5566      0              0            
Loop time of 8.75e-07 on 1 procs for 0 steps with 80 atoms

0.0% CPU use with 1 MPI tasks x no OpenMP threads

MPI task timing breakdown:
Section |  min time  |  avg time  |  max time  |%varavg| %total
---------------------------------------------------------------
Pair    | 0          | 0          | 0          |   0.0 |  0.00
Neigh   | 0          | 0          | 0          |   0.0 |  0.00
Comm    | 0          | 0          | 0          |   0.0 |  0.00
Output  | 0          | 0          | 0          |   0.0 |  0.00
Modify  | 0          | 0          | 0          |   0.0 |  0.00
Other   |            | 8.75e-07   |            |       |100.00

Nlocal:             80 ave          80 max          80 min
Histogram: 1 0 0 0 0 0 0 0 0 0
Nghost:            588 ave         588 max         588 min
Histogram: 1 0 0 0 0 0 0 0 0 0
Neighs:           4272 ave        4272 max        4272 min
Histogram: 1 0 0 0 0 0 0 0 0 0

Total # of neighbors = 4272
Ave neighs/atom = 53.4
Neighbor list builds = 0
Dangerous builds = 0
set atom * x 0.0 y 0.0 z 0.0
Setting atom values ...
  80 settings made for x
  80 settings made for y
  80 settings made for z
change_box all     x final 0 11.033116465880013 y final 0 11.973859236836363 z final 0 31.85602340956859      xy final -11.033116465880013 xz final 0.0 yz final 0.0 units box
Changing box ...
  triclinic box = (0 0 0) to (11.033116 11.973859 31.856023) with tilt (-11.033116 0 0)
  triclinic box = (0 0 0) to (11.033116 11.973859 31.856023) with tilt (-11.033116 0 0)
  triclinic box = (0 0 0) to (11.033116 11.973859 31.856023) with tilt (-11.033116 0 0)
  triclinic box = (0 0 0) to (11.033116 11.973859 31.856023) with tilt (-11.033116 0 0)
  triclinic box = (0 0 0) to (11.033116 11.973859 31.856023) with tilt (-11.033116 0 0)
  triclinic box = (0 0 0) to (11.033116 11.973859 31.856023) with tilt (-11.033116 0 0)
echo none
run 0
Per MPI rank memory allocation (min/avg/max) = 3.31 | 3.31 | 3.31 Mbytes
    PotEng          Pxx           E_mol          E_coul    
-483.84388     -1593.5566      0              0            
Loop time of 6.25e-07 on 1 procs for 0 steps with 80 atoms

160.0% CPU use with 1 MPI tasks x no OpenMP threads

MPI task timing breakdown:
Section |  min time  |  avg time  |  max time  |%varavg| %total
---------------------------------------------------------------
Pair    | 0          | 0          | 0          |   0.0 |  0.00
Neigh   | 0          | 0          | 0          |   0.0 |  0.00
Comm    | 0          | 0          | 0          |   0.0 |  0.00
Output  | 0          | 0          | 0          |   0.0 |  0.00
Modify  | 0          | 0          | 0          |   0.0 |  0.00
Other   |            | 6.25e-07   |            |       |100.00

Nlocal:             80 ave          80 max          80 min
Histogram: 1 0 0 0 0 0 0 0 0 0
Nghost:            588 ave         588 max         588 min
Histogram: 1 0 0 0 0 0 0 0 0 0
Neighs:           4272 ave        4272 max        4272 min
Histogram: 1 0 0 0 0 0 0 0 0 0

Total # of neighbors = 4272
Ave neighs/atom = 53.4
Neighbor list builds = 0
Dangerous builds = 0
set atom * x 0.0 y 0.0 z 0.0
Setting atom values ...
  80 settings made for x
  80 settings made for y
  80 settings made for z
change_box all     x final 0 11.033596470981083 y final 0 11.974380169750553 z final 0 31.857409332918866      xy final -11.033596470981083 xz final 0.0 yz final 0.0 units box
Changing box ...
  triclinic box = (0 0 0) to (11.033596 11.973859 31.856023) with tilt (-11.033116 0 0)
  triclinic box = (0 0 0) to (11.033596 11.97438 31.856023) with tilt (-11.033116 0 0)
  triclinic box = (0 0 0) to (11.033596 11.97438 31.857409) with tilt (-11.033116 0 0)
  triclinic box = (0 0 0) to (11.033596 11.97438 31.857409) with tilt (-11.033596 0 0)
  triclinic box = (0 0 0) to (11.033596 11.97438 31.857409) with tilt (-11.033596 0 0)
  triclinic box = (0 0 0) to (11.033596 11.97438 31.857409) with tilt (-11.033596 0 0)
echo none
run 0
Per MPI rank memory allocation (min/avg/max) = 3.31 | 3.31 | 3.31 Mbytes
    PotEng          Pxx           E_mol          E_coul    
-483.844       -1612.753       0              0            
Loop time of 1e-06 on 1 procs for 0 steps with 80 atoms

0.0% CPU use with 1 MPI tasks x no OpenMP threads

MPI task timing breakdown:
Section |  min time  |  avg time  |  max time  |%varavg| %total
---------------------------------------------------------------
Pair    | 0          | 0          | 0          |   0.0 |  0.00
Neigh   | 0          | 0          | 0          |   0.0 |  0.00
Comm    | 0          | 0          | 0          |   0.0 |  0.00
Output  | 0          | 0          | 0          |   0.0 |  0.00
Modify  | 0          | 0          | 0          |   0.0 |  0.00
Other   |            | 1e-06      |            |       |100.00

Nlocal:             80 ave          80 max          80 min
Histogram: 1 0 0 0 0 0 0 0 0 0
Nghost:            588 ave         588 max         588 min
Histogram: 1 0 0 0 0 0 0 0 0 0
Neighs:           4272 ave        4272 max        4272 min
Histogram: 1 0 0 0 0 0 0 0 0 0

Total # of neighbors = 4272
Ave neighs/atom = 53.4
Neighbor list builds = 0
Dangerous builds = 0
set atom * x 0.0 y 0.0 z 0.0
Setting atom values ...
  80 settings made for x
  80 settings made for y
  80 settings made for z
change_box all     x final 0 11.034772433335464 y final 0 11.9756564009716 z final 0 31.86080470034799      xy final -11.034772433335466 xz final 0.0 yz final 0.0 units box
Changing box ...
  triclinic box = (0 0 0) to (11.034772 11.97438 31.857409) with tilt (-11.033596 0 0)
  triclinic box = (0 0 0) to (11.034772 11.975656 31.857409) with tilt (-11.033596 0 0)
  triclinic box = (0 0 0) to (11.034772 11.975656 31.860805) with tilt (-11.033596 0 0)
  triclinic box = (0 0 0) to (11.034772 11.975656 31.860805) with tilt (-11.034772 0 0)
  triclinic box = (0 0 0) to (11.034772 11.975656 31.860805) with tilt (-11.034772 0 0)
  triclinic box = (0 0 0) to (11.034772 11.975656 31.860805) with tilt (-11.034772 0 0)
echo none
run 0
Per MPI rank memory allocation (min/avg/max) = 3.31 | 3.31 | 3.31 Mbytes
    PotEng          Pxx           E_mol          E_coul    
-483.84413     -1659.5372      0              0            
Loop time of 9.17e-07 on 1 procs for 0 steps with 80 atoms

109.1% CPU use with 1 MPI tasks x no OpenMP threads

MPI task timing breakdown:
Section |  min time  |  avg time  |  max time  |%varavg| %total
---------------------------------------------------------------
Pair    | 0          | 0          | 0          |   0.0 |  0.00
Neigh   | 0          | 0          | 0          |   0.0 |  0.00
Comm    | 0          | 0          | 0          |   0.0 |  0.00
Output  | 0          | 0          | 0          |   0.0 |  0.00
Modify  | 0          | 0          | 0          |   0.0 |  0.00
Other   |            | 9.17e-07   |            |       |100.00

Nlocal:             80 ave          80 max          80 min
Histogram: 1 0 0 0 0 0 0 0 0 0
Nghost:            588 ave         588 max         588 min
Histogram: 1 0 0 0 0 0 0 0 0 0
Neighs:           4272 ave        4272 max        4272 min
Histogram: 1 0 0 0 0 0 0 0 0 0

Total # of neighbors = 4272
Ave neighs/atom = 53.4
Neighbor list builds = 0
Dangerous builds = 0
set atom * x 0.0 y 0.0 z 0.0
Setting atom values ...
  80 settings made for x
  80 settings made for y
  80 settings made for z
change_box all     x final 0 11.034772433335464 y final 0 11.975656400971598 z final 0 31.86080470034799      xy final -11.034772433335466 xz final 0.0 yz final 0.0 units box
Changing box ...
  triclinic box = (0 0 0) to (11.034772 11.975656 31.860805) with tilt (-11.034772 0 0)
  triclinic box = (0 0 0) to (11.034772 11.975656 31.860805) with tilt (-11.034772 0 0)
  triclinic box = (0 0 0) to (11.034772 11.975656 31.860805) with tilt (-11.034772 0 0)
  triclinic box = (0 0 0) to (11.034772 11.975656 31.860805) with tilt (-11.034772 0 0)
  triclinic box = (0 0 0) to (11.034772 11.975656 31.860805) with tilt (-11.034772 0 0)
  triclinic box = (0 0 0) to (11.034772 11.975656 31.860805) with tilt (-11.034772 0 0)
echo none
run 0
Per MPI rank memory allocation (min/avg/max) = 3.31 | 3.31 | 3.31 Mbytes
    PotEng          Pxx           E_mol          E_coul    
-483.84413     -1659.5372      0              0            
Loop time of 8.75e-07 on 1 procs for 0 steps with 80 atoms

0.0% CPU use with 1 MPI tasks x no OpenMP threads

MPI task timing breakdown:
Section |  min time  |  avg time  |  max time  |%varavg| %total
---------------------------------------------------------------
Pair    | 0          | 0          | 0          |   0.0 |  0.00
Neigh   | 0          | 0          | 0          |   0.0 |  0.00
Comm    | 0          | 0          | 0          |   0.0 |  0.00
Output  | 0          | 0          | 0          |   0.0 |  0.00
Modify  | 0          | 0          | 0          |   0.0 |  0.00
Other   |            | 8.75e-07   |            |       |100.00

Nlocal:             80 ave          80 max          80 min
Histogram: 1 0 0 0 0 0 0 0 0 0
Nghost:            588 ave         588 max         588 min
Histogram: 1 0 0 0 0 0 0 0 0 0
Neighs:           4272 ave        4272 max        4272 min
Histogram: 1 0 0 0 0 0 0 0 0 0

Total # of neighbors = 4272
Ave neighs/atom = 53.4
Neighbor list builds = 0
Dangerous builds = 0
set atom * x 0.0 y 0.0 z 0.0
Setting atom values ...
  80 settings made for x
  80 settings made for y
  80 settings made for z
change_box all     x final 0 11.034926508684123 y final 0 11.975823613612055 z final 0 31.86124956358577      xy final -11.034926508684125 xz final 0.0 yz final 0.0 units box
Changing box ...
  triclinic box = (0 0 0) to (11.034927 11.975656 31.860805) with tilt (-11.034772 0 0)
  triclinic box = (0 0 0) to (11.034927 11.975824 31.860805) with tilt (-11.034772 0 0)
  triclinic box = (0 0 0) to (11.034927 11.975824 31.86125) with tilt (-11.034772 0 0)
  triclinic box = (0 0 0) to (11.034927 11.975824 31.86125) with tilt (-11.034927 0 0)
  triclinic box = (0 0 0) to (11.034927 11.975824 31.86125) with tilt (-11.034927 0 0)
  triclinic box = (0 0 0) to (11.034927 11.975824 31.86125) with tilt (-11.034927 0 0)
echo none
run 0
Per MPI rank memory allocation (min/avg/max) = 3.31 | 3.31 | 3.31 Mbytes
    PotEng          Pxx           E_mol          E_coul    
-483.84418     -1655.2918      0              0            
Loop time of 1.917e-06 on 1 procs for 0 steps with 80 atoms

208.7% CPU use with 1 MPI tasks x no OpenMP threads

MPI task timing breakdown:
Section |  min time  |  avg time  |  max time  |%varavg| %total
---------------------------------------------------------------
Pair    | 0          | 0          | 0          |   0.0 |  0.00
Neigh   | 0          | 0          | 0          |   0.0 |  0.00
Comm    | 0          | 0          | 0          |   0.0 |  0.00
Output  | 0          | 0          | 0          |   0.0 |  0.00
Modify  | 0          | 0          | 0          |   0.0 |  0.00
Other   |            | 1.917e-06  |            |       |100.00

Nlocal:             80 ave          80 max          80 min
Histogram: 1 0 0 0 0 0 0 0 0 0
Nghost:            588 ave         588 max         588 min
Histogram: 1 0 0 0 0 0 0 0 0 0
Neighs:           4272 ave        4272 max        4272 min
Histogram: 1 0 0 0 0 0 0 0 0 0

Total # of neighbors = 4272
Ave neighs/atom = 53.4
Neighbor list builds = 0
Dangerous builds = 0
set atom * x 0.0 y 0.0 z 0.0
Setting atom values ...
  80 settings made for x
  80 settings made for y
  80 settings made for z
change_box all     x final 0 11.03554283159216 y final 0 11.976492487521625 z final 0 31.863029078652712      xy final -11.035542831592165 xz final 0.0 yz final 0.0 units box
Changing box ...
  triclinic box = (0 0 0) to (11.035543 11.975824 31.86125) with tilt (-11.034927 0 0)
  triclinic box = (0 0 0) to (11.035543 11.976492 31.86125) with tilt (-11.034927 0 0)
  triclinic box = (0 0 0) to (11.035543 11.976492 31.863029) with tilt (-11.034927 0 0)
  triclinic box = (0 0 0) to (11.035543 11.976492 31.863029) with tilt (-11.035543 0 0)
  triclinic box = (0 0 0) to (11.035543 11.976492 31.863029) with tilt (-11.035543 0 0)
  triclinic box = (0 0 0) to (11.035543 11.976492 31.863029) with tilt (-11.035543 0 0)
echo none
run 0
Per MPI rank memory allocation (min/avg/max) = 3.31 | 3.31 | 3.31 Mbytes
    PotEng          Pxx           E_mol          E_coul    
-483.84428     -1638.1895      0              0            
Loop time of 1.166e-06 on 1 procs for 0 steps with 80 atoms

171.5% CPU use with 1 MPI tasks x no OpenMP threads

MPI task timing breakdown:
Section |  min time  |  avg time  |  max time  |%varavg| %total
---------------------------------------------------------------
Pair    | 0          | 0          | 0          |   0.0 |  0.00
Neigh   | 0          | 0          | 0          |   0.0 |  0.00
Comm    | 0          | 0          | 0          |   0.0 |  0.00
Output  | 0          | 0          | 0          |   0.0 |  0.00
Modify  | 0          | 0          | 0          |   0.0 |  0.00
Other   |            | 1.166e-06  |            |       |100.00

Nlocal:             80 ave          80 max          80 min
Histogram: 1 0 0 0 0 0 0 0 0 0
Nghost:            588 ave         588 max         588 min
Histogram: 1 0 0 0 0 0 0 0 0 0
Neighs:           4272 ave        4272 max        4272 min
Histogram: 1 0 0 0 0 0 0 0 0 0

Total # of neighbors = 4272
Ave neighs/atom = 53.4
Neighbor list builds = 0
Dangerous builds = 0
set atom * x 0.0 y 0.0 z 0.0
Setting atom values ...
  80 settings made for x
  80 settings made for y
  80 settings made for z
change_box all     x final 0 11.03554283159216 y final 0 11.976492487521625 z final 0 31.863029078652712      xy final -11.035542831592165 xz final 0.0 yz final 0.0 units box
Changing box ...
  triclinic box = (0 0 0) to (11.035543 11.976492 31.863029) with tilt (-11.035543 0 0)
  triclinic box = (0 0 0) to (11.035543 11.976492 31.863029) with tilt (-11.035543 0 0)
  triclinic box = (0 0 0) to (11.035543 11.976492 31.863029) with tilt (-11.035543 0 0)
  triclinic box = (0 0 0) to (11.035543 11.976492 31.863029) with tilt (-11.035543 0 0)
  triclinic box = (0 0 0) to (11.035543 11.976492 31.863029) with tilt (-11.035543 0 0)
  triclinic box = (0 0 0) to (11.035543 11.976492 31.863029) with tilt (-11.035543 0 0)
echo none
run 0
Per MPI rank memory allocation (min/avg/max) = 3.31 | 3.31 | 3.31 Mbytes
    PotEng          Pxx           E_mol          E_coul    
-483.84428     -1638.1895      0              0            
Loop time of 1.166e-06 on 1 procs for 0 steps with 80 atoms

85.8% CPU use with 1 MPI tasks x no OpenMP threads

MPI task timing breakdown:
Section |  min time  |  avg time  |  max time  |%varavg| %total
---------------------------------------------------------------
Pair    | 0          | 0          | 0          |   0.0 |  0.00
Neigh   | 0          | 0          | 0          |   0.0 |  0.00
Comm    | 0          | 0          | 0          |   0.0 |  0.00
Output  | 0          | 0          | 0          |   0.0 |  0.00
Modify  | 0          | 0          | 0          |   0.0 |  0.00
Other   |            | 1.166e-06  |            |       |100.00

Nlocal:             80 ave          80 max          80 min
Histogram: 1 0 0 0 0 0 0 0 0 0
Nghost:            588 ave         588 max         588 min
Histogram: 1 0 0 0 0 0 0 0 0 0
Neighs:           4272 ave        4272 max        4272 min
Histogram: 1 0 0 0 0 0 0 0 0 0

Total # of neighbors = 4272
Ave neighs/atom = 53.4
Neighbor list builds = 0
Dangerous builds = 0
set atom * x 0.0 y 0.0 z 0.0
Setting atom values ...
  80 settings made for x
  80 settings made for y
  80 settings made for z
change_box all     x final 0 11.035759637978645 y final 0 11.976727779985133 z final 0 31.86365506582004      xy final -11.03575963797865 xz final 0.0 yz final 0.0 units box
Changing box ...
  triclinic box = (0 0 0) to (11.03576 11.976492 31.863029) with tilt (-11.035543 0 0)
  triclinic box = (0 0 0) to (11.03576 11.976728 31.863029) with tilt (-11.035543 0 0)
  triclinic box = (0 0 0) to (11.03576 11.976728 31.863655) with tilt (-11.035543 0 0)
  triclinic box = (0 0 0) to (11.03576 11.976728 31.863655) with tilt (-11.03576 0 0)
  triclinic box = (0 0 0) to (11.03576 11.976728 31.863655) with tilt (-11.03576 0 0)
  triclinic box = (0 0 0) to (11.03576 11.976728 31.863655) with tilt (-11.03576 0 0)
echo none
run 0
Per MPI rank memory allocation (min/avg/max) = 3.31 | 3.31 | 3.31 Mbytes
    PotEng          Pxx           E_mol          E_coul    
-483.84431     -1638.9132      0              0            
Loop time of 9.59e-07 on 1 procs for 0 steps with 80 atoms

0.0% CPU use with 1 MPI tasks x no OpenMP threads

MPI task timing breakdown:
Section |  min time  |  avg time  |  max time  |%varavg| %total
---------------------------------------------------------------
Pair    | 0          | 0          | 0          |   0.0 |  0.00
Neigh   | 0          | 0          | 0          |   0.0 |  0.00
Comm    | 0          | 0          | 0          |   0.0 |  0.00
Output  | 0          | 0          | 0          |   0.0 |  0.00
Modify  | 0          | 0          | 0          |   0.0 |  0.00
Other   |            | 9.59e-07   |            |       |100.00

Nlocal:             80 ave          80 max          80 min
Histogram: 1 0 0 0 0 0 0 0 0 0
Nghost:            588 ave         588 max         588 min
Histogram: 1 0 0 0 0 0 0 0 0 0
Neighs:           4272 ave        4272 max        4272 min
Histogram: 1 0 0 0 0 0 0 0 0 0

Total # of neighbors = 4272
Ave neighs/atom = 53.4
Neighbor list builds = 0
Dangerous builds = 0
set atom * x 0.0 y 0.0 z 0.0
Setting atom values ...
  80 settings made for x
  80 settings made for y
  80 settings made for z
change_box all     x final 0 11.036347472523728 y final 0 11.977365736460907 z final 0 31.86535232616231      xy final -11.036347472523735 xz final 0.0 yz final 0.0 units box
Changing box ...
  triclinic box = (0 0 0) to (11.036347 11.976728 31.863655) with tilt (-11.03576 0 0)
  triclinic box = (0 0 0) to (11.036347 11.977366 31.863655) with tilt (-11.03576 0 0)
  triclinic box = (0 0 0) to (11.036347 11.977366 31.865352) with tilt (-11.03576 0 0)
  triclinic box = (0 0 0) to (11.036347 11.977366 31.865352) with tilt (-11.036347 0 0)
  triclinic box = (0 0 0) to (11.036347 11.977366 31.865352) with tilt (-11.036347 0 0)
  triclinic box = (0 0 0) to (11.036347 11.977366 31.865352) with tilt (-11.036347 0 0)
echo none
run 0
Per MPI rank memory allocation (min/avg/max) = 3.31 | 3.31 | 3.31 Mbytes
    PotEng          Pxx           E_mol          E_coul    
-483.84435     -1640.8475      0              0            
Loop time of 1.041e-06 on 1 procs for 0 steps with 80 atoms

96.1% CPU use with 1 MPI tasks x no OpenMP threads

MPI task timing breakdown:
Section |  min time  |  avg time  |  max time  |%varavg| %total
---------------------------------------------------------------
Pair    | 0          | 0          | 0          |   0.0 |  0.00
Neigh   | 0          | 0          | 0          |   0.0 |  0.00
Comm    | 0          | 0          | 0          |   0.0 |  0.00
Output  | 0          | 0          | 0          |   0.0 |  0.00
Modify  | 0          | 0          | 0          |   0.0 |  0.00
Other   |            | 1.041e-06  |            |       |100.00

Nlocal:             80 ave          80 max          80 min
Histogram: 1 0 0 0 0 0 0 0 0 0
Nghost:            588 ave         588 max         588 min
Histogram: 1 0 0 0 0 0 0 0 0 0
Neighs:           4272 ave        4272 max        4272 min
Histogram: 1 0 0 0 0 0 0 0 0 0

Total # of neighbors = 4272
Ave neighs/atom = 53.4
Neighbor list builds = 0
Dangerous builds = 0
Total wall time: 0:00:03
