LAMMPS (23 Jun 2022 - Update 4)
units metal
atom_style atomic
atom_modify map array sort 0 0
boundary p p p
box tilt large
region cell prism    0 3.185 0 3.185 0 3.185     0.0 0.0 0.0     units box
create_box 1 cell
Created triclinic box = (0 0 0) to (3.185 3.185 3.185) with tilt (0 0 0)
  1 by 1 by 1 MPI processor grid
echo none
Created 2 atoms
  using lattice units in triclinic box = (0 0 0) to (3.185 3.185 3.185) with tilt (0 0 0)
  create_atoms CPU = 0.000 seconds
Setting atom values ...
  1 settings made for type
Setting atom values ...
  1 settings made for type
pair_style eam/alloy
pair_coeff * * potentials/W.eam.alloy W
Reading eam/alloy potential file potentials/W.eam.alloy with DATE: 2018-03-30
mass 1 183.839999952708211594654130749404
variable pxx equal pxx
variable pyy equal pyy
variable pzz equal pzz
variable pxy equal pxy
variable pxz equal pxz
variable pyz equal pyz
thermo_style custom pe pxx emol ecoul
variable fx atom fx
variable fy atom fy
variable fz atom fz
variable pe equal pe
neigh_modify delay 0 every 1 check yes
echo none
run 0
WARNING: No fixes with time integration, atoms won't move (src/src/verlet.cpp:60)
Neighbor list info ...
  update every 1 steps, delay 0 steps, check yes
  max neighbors/atom: 2000, page size: 100000
  master list distance cutoff = 8.1287046
  ghost atom cutoff = 8.1287046
  binsize = 4.0643523, bins = 1 1 1
  1 neighbor lists, perpetual/occasional/extra = 1 0 0
  (1) pair eam/alloy, perpetual
      attributes: half, newton on
      pair build: half/bin/newton/tri
      stencil: half/bin/3d/tri
      bin: standard
Per MPI rank memory allocation (min/avg/max) = 3.244 | 3.244 | 3.244 Mbytes
    PotEng          Pxx           E_mol          E_coul    
-17.509054     -56440.564      0              0            
Loop time of 1.042e-06 on 1 procs for 0 steps with 2 atoms

0.0% CPU use with 1 MPI tasks x no OpenMP threads

MPI task timing breakdown:
Section |  min time  |  avg time  |  max time  |%varavg| %total
---------------------------------------------------------------
Pair    | 0          | 0          | 0          |   0.0 |  0.00
Neigh   | 0          | 0          | 0          |   0.0 |  0.00
Comm    | 0          | 0          | 0          |   0.0 |  0.00
Output  | 0          | 0          | 0          |   0.0 |  0.00
Modify  | 0          | 0          | 0          |   0.0 |  0.00
Other   |            | 1.042e-06  |            |       |100.00

Nlocal:              2 ave           2 max           2 min
Histogram: 1 0 0 0 0 0 0 0 0 0
Nghost:            557 ave         557 max         557 min
Histogram: 1 0 0 0 0 0 0 0 0 0
Neighs:            136 ave         136 max         136 min
Histogram: 1 0 0 0 0 0 0 0 0 0

Total # of neighbors = 136
Ave neighs/atom = 68
Neighbor list builds = 0
Dangerous builds = 0
set atom * x 0.0 y 0.0 z 0.0
Setting atom values ...
  2 settings made for x
  2 settings made for y
  2 settings made for z
change_box all     x final 0 2.8423601065443576 y final 0 2.8423601065443576 z final 0 2.8423601065443576      xy final 0.0 xz final 0.0 yz final 0.0 units box
Changing box ...
  triclinic box = (0 0 0) to (2.8423601 3.185 3.185) with tilt (0 0 0)
  triclinic box = (0 0 0) to (2.8423601 2.8423601 3.185) with tilt (0 0 0)
  triclinic box = (0 0 0) to (2.8423601 2.8423601 2.8423601) with tilt (0 0 0)
  triclinic box = (0 0 0) to (2.8423601 2.8423601 2.8423601) with tilt (0 0 0)
  triclinic box = (0 0 0) to (2.8423601 2.8423601 2.8423601) with tilt (0 0 0)
  triclinic box = (0 0 0) to (2.8423601 2.8423601 2.8423601) with tilt (0 0 0)
echo none
run 0
WARNING: No fixes with time integration, atoms won't move (src/src/verlet.cpp:60)
Per MPI rank memory allocation (min/avg/max) = 3.244 | 3.244 | 3.244 Mbytes
    PotEng          Pxx           E_mol          E_coul    
-13.670709      1797721.6      0              0            
Loop time of 8.75e-07 on 1 procs for 0 steps with 2 atoms

228.6% CPU use with 1 MPI tasks x no OpenMP threads

MPI task timing breakdown:
Section |  min time  |  avg time  |  max time  |%varavg| %total
---------------------------------------------------------------
Pair    | 0          | 0          | 0          |   0.0 |  0.00
Neigh   | 0          | 0          | 0          |   0.0 |  0.00
Comm    | 0          | 0          | 0          |   0.0 |  0.00
Output  | 0          | 0          | 0          |   0.0 |  0.00
Modify  | 0          | 0          | 0          |   0.0 |  0.00
Other   |            | 8.75e-07   |            |       |100.00

Nlocal:              2 ave           2 max           2 min
Histogram: 1 0 0 0 0 0 0 0 0 0
Nghost:            557 ave         557 max         557 min
Histogram: 1 0 0 0 0 0 0 0 0 0
Neighs:            180 ave         180 max         180 min
Histogram: 1 0 0 0 0 0 0 0 0 0

Total # of neighbors = 180
Ave neighs/atom = 90
Neighbor list builds = 0
Dangerous builds = 0
set atom * x 0.0 y 0.0 z 0.0
Setting atom values ...
  2 settings made for x
  2 settings made for y
  2 settings made for z
change_box all     x final 0 3.1668108703228675 y final 0 3.1668108703228675 z final 0 3.1668108703228675      xy final 0.0 xz final 0.0 yz final 0.0 units box
Changing box ...
  triclinic box = (0 0 0) to (3.1668109 2.8423601 2.8423601) with tilt (0 0 0)
  triclinic box = (0 0 0) to (3.1668109 3.1668109 2.8423601) with tilt (0 0 0)
  triclinic box = (0 0 0) to (3.1668109 3.1668109 3.1668109) with tilt (0 0 0)
  triclinic box = (0 0 0) to (3.1668109 3.1668109 3.1668109) with tilt (0 0 0)
  triclinic box = (0 0 0) to (3.1668109 3.1668109 3.1668109) with tilt (0 0 0)
  triclinic box = (0 0 0) to (3.1668109 3.1668109 3.1668109) with tilt (0 0 0)
echo none
run 0
WARNING: No fixes with time integration, atoms won't move (src/src/verlet.cpp:60)
Per MPI rank memory allocation (min/avg/max) = 3.244 | 3.244 | 3.244 Mbytes
    PotEng          Pxx           E_mol          E_coul    
-17.519882     -5742.5446      0              0            
Loop time of 9.17e-07 on 1 procs for 0 steps with 2 atoms

218.1% CPU use with 1 MPI tasks x no OpenMP threads

MPI task timing breakdown:
Section |  min time  |  avg time  |  max time  |%varavg| %total
---------------------------------------------------------------
Pair    | 0          | 0          | 0          |   0.0 |  0.00
Neigh   | 0          | 0          | 0          |   0.0 |  0.00
Comm    | 0          | 0          | 0          |   0.0 |  0.00
Output  | 0          | 0          | 0          |   0.0 |  0.00
Modify  | 0          | 0          | 0          |   0.0 |  0.00
Other   |            | 9.17e-07   |            |       |100.00

Nlocal:              2 ave           2 max           2 min
Histogram: 1 0 0 0 0 0 0 0 0 0
Nghost:            557 ave         557 max         557 min
Histogram: 1 0 0 0 0 0 0 0 0 0
Neighs:            136 ave         136 max         136 min
Histogram: 1 0 0 0 0 0 0 0 0 0

Total # of neighbors = 136
Ave neighs/atom = 68
Neighbor list builds = 0
Dangerous builds = 0
set atom * x 0.0 y 0.0 z 0.0
Setting atom values ...
  2 settings made for x
  2 settings made for y
  2 settings made for z
change_box all     x final 0 3.164796015543819 y final 0 3.164796015543819 z final 0 3.164796015543819      xy final 0.0 xz final 0.0 yz final 0.0 units box
Changing box ...
  triclinic box = (0 0 0) to (3.164796 3.1668109 3.1668109) with tilt (0 0 0)
  triclinic box = (0 0 0) to (3.164796 3.164796 3.1668109) with tilt (0 0 0)
  triclinic box = (0 0 0) to (3.164796 3.164796 3.164796) with tilt (0 0 0)
  triclinic box = (0 0 0) to (3.164796 3.164796 3.164796) with tilt (0 0 0)
  triclinic box = (0 0 0) to (3.164796 3.164796 3.164796) with tilt (0 0 0)
  triclinic box = (0 0 0) to (3.164796 3.164796 3.164796) with tilt (0 0 0)
echo none
run 0
WARNING: No fixes with time integration, atoms won't move (src/src/verlet.cpp:60)
Per MPI rank memory allocation (min/avg/max) = 3.244 | 3.244 | 3.244 Mbytes
    PotEng          Pxx           E_mol          E_coul    
-17.519988      157.21793      0              0            
Loop time of 1e-06 on 1 procs for 0 steps with 2 atoms

200.0% CPU use with 1 MPI tasks x no OpenMP threads

MPI task timing breakdown:
Section |  min time  |  avg time  |  max time  |%varavg| %total
---------------------------------------------------------------
Pair    | 0          | 0          | 0          |   0.0 |  0.00
Neigh   | 0          | 0          | 0          |   0.0 |  0.00
Comm    | 0          | 0          | 0          |   0.0 |  0.00
Output  | 0          | 0          | 0          |   0.0 |  0.00
Modify  | 0          | 0          | 0          |   0.0 |  0.00
Other   |            | 1e-06      |            |       |100.00

Nlocal:              2 ave           2 max           2 min
Histogram: 1 0 0 0 0 0 0 0 0 0
Nghost:            557 ave         557 max         557 min
Histogram: 1 0 0 0 0 0 0 0 0 0
Neighs:            136 ave         136 max         136 min
Histogram: 1 0 0 0 0 0 0 0 0 0

Total # of neighbors = 136
Ave neighs/atom = 68
Neighbor list builds = 0
Dangerous builds = 0
set atom * x 0.0 y 0.0 z 0.0
Setting atom values ...
  2 settings made for x
  2 settings made for y
  2 settings made for z
change_box all     x final 0 2.848316413989437 y final 0 2.848316413989437 z final 0 2.848316413989437      xy final 0.0 xz final 0.0 yz final 0.0 units box
Changing box ...
  triclinic box = (0 0 0) to (2.8483164 3.164796 3.164796) with tilt (0 0 0)
  triclinic box = (0 0 0) to (2.8483164 2.8483164 3.164796) with tilt (0 0 0)
  triclinic box = (0 0 0) to (2.8483164 2.8483164 2.8483164) with tilt (0 0 0)
  triclinic box = (0 0 0) to (2.8483164 2.8483164 2.8483164) with tilt (0 0 0)
  triclinic box = (0 0 0) to (2.8483164 2.8483164 2.8483164) with tilt (0 0 0)
  triclinic box = (0 0 0) to (2.8483164 2.8483164 2.8483164) with tilt (0 0 0)
echo none
run 0
WARNING: No fixes with time integration, atoms won't move (src/src/verlet.cpp:60)
Per MPI rank memory allocation (min/avg/max) = 3.244 | 3.244 | 3.244 Mbytes
    PotEng          Pxx           E_mol          E_coul    
-13.830533      1742629        0              0            
Loop time of 8.33e-07 on 1 procs for 0 steps with 2 atoms

0.0% CPU use with 1 MPI tasks x no OpenMP threads

MPI task timing breakdown:
Section |  min time  |  avg time  |  max time  |%varavg| %total
---------------------------------------------------------------
Pair    | 0          | 0          | 0          |   0.0 |  0.00
Neigh   | 0          | 0          | 0          |   0.0 |  0.00
Comm    | 0          | 0          | 0          |   0.0 |  0.00
Output  | 0          | 0          | 0          |   0.0 |  0.00
Modify  | 0          | 0          | 0          |   0.0 |  0.00
Other   |            | 8.33e-07   |            |       |100.00

Nlocal:              2 ave           2 max           2 min
Histogram: 1 0 0 0 0 0 0 0 0 0
Nghost:            557 ave         557 max         557 min
Histogram: 1 0 0 0 0 0 0 0 0 0
Neighs:            180 ave         180 max         180 min
Histogram: 1 0 0 0 0 0 0 0 0 0

Total # of neighbors = 180
Ave neighs/atom = 90
Neighbor list builds = 0
Dangerous builds = 0
set atom * x 0.0 y 0.0 z 0.0
Setting atom values ...
  2 settings made for x
  2 settings made for y
  2 settings made for z
change_box all     x final 0 2.8799643741448753 y final 0 2.8799643741448753 z final 0 2.8799643741448753      xy final 0.0 xz final 0.0 yz final 0.0 units box
Changing box ...
  triclinic box = (0 0 0) to (2.8799644 2.8483164 2.8483164) with tilt (0 0 0)
  triclinic box = (0 0 0) to (2.8799644 2.8799644 2.8483164) with tilt (0 0 0)
  triclinic box = (0 0 0) to (2.8799644 2.8799644 2.8799644) with tilt (0 0 0)
  triclinic box = (0 0 0) to (2.8799644 2.8799644 2.8799644) with tilt (0 0 0)
  triclinic box = (0 0 0) to (2.8799644 2.8799644 2.8799644) with tilt (0 0 0)
  triclinic box = (0 0 0) to (2.8799644 2.8799644 2.8799644) with tilt (0 0 0)
echo none
run 0
WARNING: No fixes with time integration, atoms won't move (src/src/verlet.cpp:60)
Per MPI rank memory allocation (min/avg/max) = 3.244 | 3.244 | 3.244 Mbytes
    PotEng          Pxx           E_mol          E_coul    
-14.609829      1469973.3      0              0            
Loop time of 9.16e-07 on 1 procs for 0 steps with 2 atoms

109.2% CPU use with 1 MPI tasks x no OpenMP threads

MPI task timing breakdown:
Section |  min time  |  avg time  |  max time  |%varavg| %total
---------------------------------------------------------------
Pair    | 0          | 0          | 0          |   0.0 |  0.00
Neigh   | 0          | 0          | 0          |   0.0 |  0.00
Comm    | 0          | 0          | 0          |   0.0 |  0.00
Output  | 0          | 0          | 0          |   0.0 |  0.00
Modify  | 0          | 0          | 0          |   0.0 |  0.00
Other   |            | 9.16e-07   |            |       |100.00

Nlocal:              2 ave           2 max           2 min
Histogram: 1 0 0 0 0 0 0 0 0 0
Nghost:            557 ave         557 max         557 min
Histogram: 1 0 0 0 0 0 0 0 0 0
Neighs:            168 ave         168 max         168 min
Histogram: 1 0 0 0 0 0 0 0 0 0

Total # of neighbors = 168
Ave neighs/atom = 84
Neighbor list builds = 0
Dangerous builds = 0
set atom * x 0.0 y 0.0 z 0.0
Setting atom values ...
  2 settings made for x
  2 settings made for y
  2 settings made for z
change_box all     x final 0 2.9116123343003135 y final 0 2.9116123343003135 z final 0 2.9116123343003135      xy final 0.0 xz final 0.0 yz final 0.0 units box
Changing box ...
  triclinic box = (0 0 0) to (2.9116123 2.8799644 2.8799644) with tilt (0 0 0)
  triclinic box = (0 0 0) to (2.9116123 2.9116123 2.8799644) with tilt (0 0 0)
  triclinic box = (0 0 0) to (2.9116123 2.9116123 2.9116123) with tilt (0 0 0)
  triclinic box = (0 0 0) to (2.9116123 2.9116123 2.9116123) with tilt (0 0 0)
  triclinic box = (0 0 0) to (2.9116123 2.9116123 2.9116123) with tilt (0 0 0)
  triclinic box = (0 0 0) to (2.9116123 2.9116123 2.9116123) with tilt (0 0 0)
echo none
run 0
WARNING: No fixes with time integration, atoms won't move (src/src/verlet.cpp:60)
Per MPI rank memory allocation (min/avg/max) = 3.244 | 3.244 | 3.244 Mbytes
    PotEng          Pxx           E_mol          E_coul    
-15.27875       1227857        0              0            
Loop time of 1.125e-06 on 1 procs for 0 steps with 2 atoms

0.0% CPU use with 1 MPI tasks x no OpenMP threads

MPI task timing breakdown:
Section |  min time  |  avg time  |  max time  |%varavg| %total
---------------------------------------------------------------
Pair    | 0          | 0          | 0          |   0.0 |  0.00
Neigh   | 0          | 0          | 0          |   0.0 |  0.00
Comm    | 0          | 0          | 0          |   0.0 |  0.00
Output  | 0          | 0          | 0          |   0.0 |  0.00
Modify  | 0          | 0          | 0          |   0.0 |  0.00
Other   |            | 1.125e-06  |            |       |100.00

Nlocal:              2 ave           2 max           2 min
Histogram: 1 0 0 0 0 0 0 0 0 0
Nghost:            557 ave         557 max         557 min
Histogram: 1 0 0 0 0 0 0 0 0 0
Neighs:            168 ave         168 max         168 min
Histogram: 1 0 0 0 0 0 0 0 0 0

Total # of neighbors = 168
Ave neighs/atom = 84
Neighbor list builds = 0
Dangerous builds = 0
set atom * x 0.0 y 0.0 z 0.0
Setting atom values ...
  2 settings made for x
  2 settings made for y
  2 settings made for z
change_box all     x final 0 2.9432602944557518 y final 0 2.9432602944557518 z final 0 2.9432602944557518      xy final 0.0 xz final 0.0 yz final 0.0 units box
Changing box ...
  triclinic box = (0 0 0) to (2.9432603 2.9116123 2.9116123) with tilt (0 0 0)
  triclinic box = (0 0 0) to (2.9432603 2.9432603 2.9116123) with tilt (0 0 0)
  triclinic box = (0 0 0) to (2.9432603 2.9432603 2.9432603) with tilt (0 0 0)
  triclinic box = (0 0 0) to (2.9432603 2.9432603 2.9432603) with tilt (0 0 0)
  triclinic box = (0 0 0) to (2.9432603 2.9432603 2.9432603) with tilt (0 0 0)
  triclinic box = (0 0 0) to (2.9432603 2.9432603 2.9432603) with tilt (0 0 0)
echo none
run 0
WARNING: No fixes with time integration, atoms won't move (src/src/verlet.cpp:60)
Per MPI rank memory allocation (min/avg/max) = 3.244 | 3.244 | 3.244 Mbytes
    PotEng          Pxx           E_mol          E_coul    
-15.846298      1012080.2      0              0            
Loop time of 9.16e-07 on 1 procs for 0 steps with 2 atoms

109.2% CPU use with 1 MPI tasks x no OpenMP threads

MPI task timing breakdown:
Section |  min time  |  avg time  |  max time  |%varavg| %total
---------------------------------------------------------------
Pair    | 0          | 0          | 0          |   0.0 |  0.00
Neigh   | 0          | 0          | 0          |   0.0 |  0.00
Comm    | 0          | 0          | 0          |   0.0 |  0.00
Output  | 0          | 0          | 0          |   0.0 |  0.00
Modify  | 0          | 0          | 0          |   0.0 |  0.00
Other   |            | 9.16e-07   |            |       |100.00

Nlocal:              2 ave           2 max           2 min
Histogram: 1 0 0 0 0 0 0 0 0 0
Nghost:            557 ave         557 max         557 min
Histogram: 1 0 0 0 0 0 0 0 0 0
Neighs:            168 ave         168 max         168 min
Histogram: 1 0 0 0 0 0 0 0 0 0

Total # of neighbors = 168
Ave neighs/atom = 84
Neighbor list builds = 0
Dangerous builds = 0
set atom * x 0.0 y 0.0 z 0.0
Setting atom values ...
  2 settings made for x
  2 settings made for y
  2 settings made for z
change_box all     x final 0 2.97490825461119 y final 0 2.97490825461119 z final 0 2.97490825461119      xy final 0.0 xz final 0.0 yz final 0.0 units box
Changing box ...
  triclinic box = (0 0 0) to (2.9749083 2.9432603 2.9432603) with tilt (0 0 0)
  triclinic box = (0 0 0) to (2.9749083 2.9749083 2.9432603) with tilt (0 0 0)
  triclinic box = (0 0 0) to (2.9749083 2.9749083 2.9749083) with tilt (0 0 0)
  triclinic box = (0 0 0) to (2.9749083 2.9749083 2.9749083) with tilt (0 0 0)
  triclinic box = (0 0 0) to (2.9749083 2.9749083 2.9749083) with tilt (0 0 0)
  triclinic box = (0 0 0) to (2.9749083 2.9749083 2.9749083) with tilt (0 0 0)
echo none
run 0
WARNING: No fixes with time integration, atoms won't move (src/src/verlet.cpp:60)
Per MPI rank memory allocation (min/avg/max) = 3.244 | 3.244 | 3.244 Mbytes
    PotEng          Pxx           E_mol          E_coul    
-16.320251      818880.05      0              0            
Loop time of 9.58e-07 on 1 procs for 0 steps with 2 atoms

0.0% CPU use with 1 MPI tasks x no OpenMP threads

MPI task timing breakdown:
Section |  min time  |  avg time  |  max time  |%varavg| %total
---------------------------------------------------------------
Pair    | 0          | 0          | 0          |   0.0 |  0.00
Neigh   | 0          | 0          | 0          |   0.0 |  0.00
Comm    | 0          | 0          | 0          |   0.0 |  0.00
Output  | 0          | 0          | 0          |   0.0 |  0.00
Modify  | 0          | 0          | 0          |   0.0 |  0.00
Other   |            | 9.58e-07   |            |       |100.00

Nlocal:              2 ave           2 max           2 min
Histogram: 1 0 0 0 0 0 0 0 0 0
Nghost:            557 ave         557 max         557 min
Histogram: 1 0 0 0 0 0 0 0 0 0
Neighs:            168 ave         168 max         168 min
Histogram: 1 0 0 0 0 0 0 0 0 0

Total # of neighbors = 168
Ave neighs/atom = 84
Neighbor list builds = 0
Dangerous builds = 0
set atom * x 0.0 y 0.0 z 0.0
Setting atom values ...
  2 settings made for x
  2 settings made for y
  2 settings made for z
change_box all     x final 0 3.0065562147666283 y final 0 3.0065562147666283 z final 0 3.0065562147666283      xy final 0.0 xz final 0.0 yz final 0.0 units box
Changing box ...
  triclinic box = (0 0 0) to (3.0065562 2.9749083 2.9749083) with tilt (0 0 0)
  triclinic box = (0 0 0) to (3.0065562 3.0065562 2.9749083) with tilt (0 0 0)
  triclinic box = (0 0 0) to (3.0065562 3.0065562 3.0065562) with tilt (0 0 0)
  triclinic box = (0 0 0) to (3.0065562 3.0065562 3.0065562) with tilt (0 0 0)
  triclinic box = (0 0 0) to (3.0065562 3.0065562 3.0065562) with tilt (0 0 0)
  triclinic box = (0 0 0) to (3.0065562 3.0065562 3.0065562) with tilt (0 0 0)
echo none
run 0
WARNING: No fixes with time integration, atoms won't move (src/src/verlet.cpp:60)
Per MPI rank memory allocation (min/avg/max) = 3.244 | 3.244 | 3.244 Mbytes
    PotEng          Pxx           E_mol          E_coul    
-16.707275      645067.39      0              0            
Loop time of 9.59e-07 on 1 procs for 0 steps with 2 atoms

0.0% CPU use with 1 MPI tasks x no OpenMP threads

MPI task timing breakdown:
Section |  min time  |  avg time  |  max time  |%varavg| %total
---------------------------------------------------------------
Pair    | 0          | 0          | 0          |   0.0 |  0.00
Neigh   | 0          | 0          | 0          |   0.0 |  0.00
Comm    | 0          | 0          | 0          |   0.0 |  0.00
Output  | 0          | 0          | 0          |   0.0 |  0.00
Modify  | 0          | 0          | 0          |   0.0 |  0.00
Other   |            | 9.59e-07   |            |       |100.00

Nlocal:              2 ave           2 max           2 min
Histogram: 1 0 0 0 0 0 0 0 0 0
Nghost:            557 ave         557 max         557 min
Histogram: 1 0 0 0 0 0 0 0 0 0
Neighs:            168 ave         168 max         168 min
Histogram: 1 0 0 0 0 0 0 0 0 0

Total # of neighbors = 168
Ave neighs/atom = 84
Neighbor list builds = 0
Dangerous builds = 0
set atom * x 0.0 y 0.0 z 0.0
Setting atom values ...
  2 settings made for x
  2 settings made for y
  2 settings made for z
change_box all     x final 0 3.0382041749220665 y final 0 3.0382041749220665 z final 0 3.0382041749220665      xy final 0.0 xz final 0.0 yz final 0.0 units box
Changing box ...
  triclinic box = (0 0 0) to (3.0382042 3.0065562 3.0065562) with tilt (0 0 0)
  triclinic box = (0 0 0) to (3.0382042 3.0382042 3.0065562) with tilt (0 0 0)
  triclinic box = (0 0 0) to (3.0382042 3.0382042 3.0382042) with tilt (0 0 0)
  triclinic box = (0 0 0) to (3.0382042 3.0382042 3.0382042) with tilt (0 0 0)
  triclinic box = (0 0 0) to (3.0382042 3.0382042 3.0382042) with tilt (0 0 0)
  triclinic box = (0 0 0) to (3.0382042 3.0382042 3.0382042) with tilt (0 0 0)
echo none
run 0
WARNING: No fixes with time integration, atoms won't move (src/src/verlet.cpp:60)
Per MPI rank memory allocation (min/avg/max) = 3.244 | 3.244 | 3.244 Mbytes
    PotEng          Pxx           E_mol          E_coul    
-17.013125      488118.59      0              0            
Loop time of 1.167e-06 on 1 procs for 0 steps with 2 atoms

85.7% CPU use with 1 MPI tasks x no OpenMP threads

MPI task timing breakdown:
Section |  min time  |  avg time  |  max time  |%varavg| %total
---------------------------------------------------------------
Pair    | 0          | 0          | 0          |   0.0 |  0.00
Neigh   | 0          | 0          | 0          |   0.0 |  0.00
Comm    | 0          | 0          | 0          |   0.0 |  0.00
Output  | 0          | 0          | 0          |   0.0 |  0.00
Modify  | 0          | 0          | 0          |   0.0 |  0.00
Other   |            | 1.167e-06  |            |       |100.00

Nlocal:              2 ave           2 max           2 min
Histogram: 1 0 0 0 0 0 0 0 0 0
Nghost:            557 ave         557 max         557 min
Histogram: 1 0 0 0 0 0 0 0 0 0
Neighs:            168 ave         168 max         168 min
Histogram: 1 0 0 0 0 0 0 0 0 0

Total # of neighbors = 168
Ave neighs/atom = 84
Neighbor list builds = 0
Dangerous builds = 0
set atom * x 0.0 y 0.0 z 0.0
Setting atom values ...
  2 settings made for x
  2 settings made for y
  2 settings made for z
change_box all     x final 0 3.0698521350775048 y final 0 3.0698521350775048 z final 0 3.0698521350775048      xy final 0.0 xz final 0.0 yz final 0.0 units box
Changing box ...
  triclinic box = (0 0 0) to (3.0698521 3.0382042 3.0382042) with tilt (0 0 0)
  triclinic box = (0 0 0) to (3.0698521 3.0698521 3.0382042) with tilt (0 0 0)
  triclinic box = (0 0 0) to (3.0698521 3.0698521 3.0698521) with tilt (0 0 0)
  triclinic box = (0 0 0) to (3.0698521 3.0698521 3.0698521) with tilt (0 0 0)
  triclinic box = (0 0 0) to (3.0698521 3.0698521 3.0698521) with tilt (0 0 0)
  triclinic box = (0 0 0) to (3.0698521 3.0698521 3.0698521) with tilt (0 0 0)
echo none
run 0
WARNING: No fixes with time integration, atoms won't move (src/src/verlet.cpp:60)
Per MPI rank memory allocation (min/avg/max) = 3.244 | 3.244 | 3.244 Mbytes
    PotEng          Pxx           E_mol          E_coul    
-17.242901      346191.32      0              0            
Loop time of 7.92e-07 on 1 procs for 0 steps with 2 atoms

126.3% CPU use with 1 MPI tasks x no OpenMP threads

MPI task timing breakdown:
Section |  min time  |  avg time  |  max time  |%varavg| %total
---------------------------------------------------------------
Pair    | 0          | 0          | 0          |   0.0 |  0.00
Neigh   | 0          | 0          | 0          |   0.0 |  0.00
Comm    | 0          | 0          | 0          |   0.0 |  0.00
Output  | 0          | 0          | 0          |   0.0 |  0.00
Modify  | 0          | 0          | 0          |   0.0 |  0.00
Other   |            | 7.92e-07   |            |       |100.00

Nlocal:              2 ave           2 max           2 min
Histogram: 1 0 0 0 0 0 0 0 0 0
Nghost:            557 ave         557 max         557 min
Histogram: 1 0 0 0 0 0 0 0 0 0
Neighs:            168 ave         168 max         168 min
Histogram: 1 0 0 0 0 0 0 0 0 0

Total # of neighbors = 168
Ave neighs/atom = 84
Neighbor list builds = 0
Dangerous builds = 0
set atom * x 0.0 y 0.0 z 0.0
Setting atom values ...
  2 settings made for x
  2 settings made for y
  2 settings made for z
change_box all     x final 0 3.101500095232943 y final 0 3.101500095232943 z final 0 3.101500095232943      xy final 0.0 xz final 0.0 yz final 0.0 units box
Changing box ...
  triclinic box = (0 0 0) to (3.1015001 3.0698521 3.0698521) with tilt (0 0 0)
  triclinic box = (0 0 0) to (3.1015001 3.1015001 3.0698521) with tilt (0 0 0)
  triclinic box = (0 0 0) to (3.1015001 3.1015001 3.1015001) with tilt (0 0 0)
  triclinic box = (0 0 0) to (3.1015001 3.1015001 3.1015001) with tilt (0 0 0)
  triclinic box = (0 0 0) to (3.1015001 3.1015001 3.1015001) with tilt (0 0 0)
  triclinic box = (0 0 0) to (3.1015001 3.1015001 3.1015001) with tilt (0 0 0)
echo none
run 0
WARNING: No fixes with time integration, atoms won't move (src/src/verlet.cpp:60)
Per MPI rank memory allocation (min/avg/max) = 3.244 | 3.244 | 3.244 Mbytes
    PotEng          Pxx           E_mol          E_coul    
-17.40093       216070.77      0              0            
Loop time of 7.5e-07 on 1 procs for 0 steps with 2 atoms

133.3% CPU use with 1 MPI tasks x no OpenMP threads

MPI task timing breakdown:
Section |  min time  |  avg time  |  max time  |%varavg| %total
---------------------------------------------------------------
Pair    | 0          | 0          | 0          |   0.0 |  0.00
Neigh   | 0          | 0          | 0          |   0.0 |  0.00
Comm    | 0          | 0          | 0          |   0.0 |  0.00
Output  | 0          | 0          | 0          |   0.0 |  0.00
Modify  | 0          | 0          | 0          |   0.0 |  0.00
Other   |            | 7.5e-07    |            |       |100.00

Nlocal:              2 ave           2 max           2 min
Histogram: 1 0 0 0 0 0 0 0 0 0
Nghost:            557 ave         557 max         557 min
Histogram: 1 0 0 0 0 0 0 0 0 0
Neighs:            168 ave         168 max         168 min
Histogram: 1 0 0 0 0 0 0 0 0 0

Total # of neighbors = 168
Ave neighs/atom = 84
Neighbor list builds = 0
Dangerous builds = 0
set atom * x 0.0 y 0.0 z 0.0
Setting atom values ...
  2 settings made for x
  2 settings made for y
  2 settings made for z
change_box all     x final 0 3.1331480553883813 y final 0 3.1331480553883813 z final 0 3.1331480553883813      xy final 0.0 xz final 0.0 yz final 0.0 units box
Changing box ...
  triclinic box = (0 0 0) to (3.1331481 3.1015001 3.1015001) with tilt (0 0 0)
  triclinic box = (0 0 0) to (3.1331481 3.1331481 3.1015001) with tilt (0 0 0)
  triclinic box = (0 0 0) to (3.1331481 3.1331481 3.1331481) with tilt (0 0 0)
  triclinic box = (0 0 0) to (3.1331481 3.1331481 3.1331481) with tilt (0 0 0)
  triclinic box = (0 0 0) to (3.1331481 3.1331481 3.1331481) with tilt (0 0 0)
  triclinic box = (0 0 0) to (3.1331481 3.1331481 3.1331481) with tilt (0 0 0)
echo none
run 0
WARNING: No fixes with time integration, atoms won't move (src/src/verlet.cpp:60)
Per MPI rank memory allocation (min/avg/max) = 3.244 | 3.244 | 3.244 Mbytes
    PotEng          Pxx           E_mol          E_coul    
-17.491223      100526.43      0              0            
Loop time of 1.084e-06 on 1 procs for 0 steps with 2 atoms

0.0% CPU use with 1 MPI tasks x no OpenMP threads

MPI task timing breakdown:
Section |  min time  |  avg time  |  max time  |%varavg| %total
---------------------------------------------------------------
Pair    | 0          | 0          | 0          |   0.0 |  0.00
Neigh   | 0          | 0          | 0          |   0.0 |  0.00
Comm    | 0          | 0          | 0          |   0.0 |  0.00
Output  | 0          | 0          | 0          |   0.0 |  0.00
Modify  | 0          | 0          | 0          |   0.0 |  0.00
Other   |            | 1.084e-06  |            |       |100.00

Nlocal:              2 ave           2 max           2 min
Histogram: 1 0 0 0 0 0 0 0 0 0
Nghost:            557 ave         557 max         557 min
Histogram: 1 0 0 0 0 0 0 0 0 0
Neighs:            136 ave         136 max         136 min
Histogram: 1 0 0 0 0 0 0 0 0 0

Total # of neighbors = 136
Ave neighs/atom = 68
Neighbor list builds = 0
Dangerous builds = 0
set atom * x 0.0 y 0.0 z 0.0
Setting atom values ...
  2 settings made for x
  2 settings made for y
  2 settings made for z
change_box all     x final 0 3.164796015543819 y final 0 3.164796015543819 z final 0 3.164796015543819      xy final 0.0 xz final 0.0 yz final 0.0 units box
Changing box ...
  triclinic box = (0 0 0) to (3.164796 3.1331481 3.1331481) with tilt (0 0 0)
  triclinic box = (0 0 0) to (3.164796 3.164796 3.1331481) with tilt (0 0 0)
  triclinic box = (0 0 0) to (3.164796 3.164796 3.164796) with tilt (0 0 0)
  triclinic box = (0 0 0) to (3.164796 3.164796 3.164796) with tilt (0 0 0)
  triclinic box = (0 0 0) to (3.164796 3.164796 3.164796) with tilt (0 0 0)
  triclinic box = (0 0 0) to (3.164796 3.164796 3.164796) with tilt (0 0 0)
echo none
run 0
WARNING: No fixes with time integration, atoms won't move (src/src/verlet.cpp:60)
Per MPI rank memory allocation (min/avg/max) = 3.244 | 3.244 | 3.244 Mbytes
    PotEng          Pxx           E_mol          E_coul    
-17.519988      157.21793      0              0            
Loop time of 1.042e-06 on 1 procs for 0 steps with 2 atoms

287.9% CPU use with 1 MPI tasks x no OpenMP threads

MPI task timing breakdown:
Section |  min time  |  avg time  |  max time  |%varavg| %total
---------------------------------------------------------------
Pair    | 0          | 0          | 0          |   0.0 |  0.00
Neigh   | 0          | 0          | 0          |   0.0 |  0.00
Comm    | 0          | 0          | 0          |   0.0 |  0.00
Output  | 0          | 0          | 0          |   0.0 |  0.00
Modify  | 0          | 0          | 0          |   0.0 |  0.00
Other   |            | 1.042e-06  |            |       |100.00

Nlocal:              2 ave           2 max           2 min
Histogram: 1 0 0 0 0 0 0 0 0 0
Nghost:            557 ave         557 max         557 min
Histogram: 1 0 0 0 0 0 0 0 0 0
Neighs:            136 ave         136 max         136 min
Histogram: 1 0 0 0 0 0 0 0 0 0

Total # of neighbors = 136
Ave neighs/atom = 68
Neighbor list builds = 0
Dangerous builds = 0
set atom * x 0.0 y 0.0 z 0.0
Setting atom values ...
  2 settings made for x
  2 settings made for y
  2 settings made for z
change_box all     x final 0 3.196443975699258 y final 0 3.196443975699258 z final 0 3.196443975699258      xy final 0.0 xz final 0.0 yz final 0.0 units box
Changing box ...
  triclinic box = (0 0 0) to (3.196444 3.164796 3.164796) with tilt (0 0 0)
  triclinic box = (0 0 0) to (3.196444 3.196444 3.164796) with tilt (0 0 0)
  triclinic box = (0 0 0) to (3.196444 3.196444 3.196444) with tilt (0 0 0)
  triclinic box = (0 0 0) to (3.196444 3.196444 3.196444) with tilt (0 0 0)
  triclinic box = (0 0 0) to (3.196444 3.196444 3.196444) with tilt (0 0 0)
  triclinic box = (0 0 0) to (3.196444 3.196444 3.196444) with tilt (0 0 0)
echo none
run 0
WARNING: No fixes with time integration, atoms won't move (src/src/verlet.cpp:60)
Per MPI rank memory allocation (min/avg/max) = 3.244 | 3.244 | 3.244 Mbytes
    PotEng          Pxx           E_mol          E_coul    
-17.493478     -86024.936      0              0            
Loop time of 1.042e-06 on 1 procs for 0 steps with 2 atoms

0.0% CPU use with 1 MPI tasks x no OpenMP threads

MPI task timing breakdown:
Section |  min time  |  avg time  |  max time  |%varavg| %total
---------------------------------------------------------------
Pair    | 0          | 0          | 0          |   0.0 |  0.00
Neigh   | 0          | 0          | 0          |   0.0 |  0.00
Comm    | 0          | 0          | 0          |   0.0 |  0.00
Output  | 0          | 0          | 0          |   0.0 |  0.00
Modify  | 0          | 0          | 0          |   0.0 |  0.00
Other   |            | 1.042e-06  |            |       |100.00

Nlocal:              2 ave           2 max           2 min
Histogram: 1 0 0 0 0 0 0 0 0 0
Nghost:            557 ave         557 max         557 min
Histogram: 1 0 0 0 0 0 0 0 0 0
Neighs:            136 ave         136 max         136 min
Histogram: 1 0 0 0 0 0 0 0 0 0

Total # of neighbors = 136
Ave neighs/atom = 68
Neighbor list builds = 0
Dangerous builds = 0
set atom * x 0.0 y 0.0 z 0.0
Setting atom values ...
  2 settings made for x
  2 settings made for y
  2 settings made for z
change_box all     x final 0 3.2280919358546956 y final 0 3.2280919358546956 z final 0 3.2280919358546956      xy final 0.0 xz final 0.0 yz final 0.0 units box
Changing box ...
  triclinic box = (0 0 0) to (3.2280919 3.196444 3.196444) with tilt (0 0 0)
  triclinic box = (0 0 0) to (3.2280919 3.2280919 3.196444) with tilt (0 0 0)
  triclinic box = (0 0 0) to (3.2280919 3.2280919 3.2280919) with tilt (0 0 0)
  triclinic box = (0 0 0) to (3.2280919 3.2280919 3.2280919) with tilt (0 0 0)
  triclinic box = (0 0 0) to (3.2280919 3.2280919 3.2280919) with tilt (0 0 0)
  triclinic box = (0 0 0) to (3.2280919 3.2280919 3.2280919) with tilt (0 0 0)
echo none
run 0
WARNING: No fixes with time integration, atoms won't move (src/src/verlet.cpp:60)
Per MPI rank memory allocation (min/avg/max) = 3.244 | 3.244 | 3.244 Mbytes
    PotEng          Pxx           E_mol          E_coul    
-17.417857     -158936.28      0              0            
Loop time of 1.083e-06 on 1 procs for 0 steps with 2 atoms

0.0% CPU use with 1 MPI tasks x no OpenMP threads

MPI task timing breakdown:
Section |  min time  |  avg time  |  max time  |%varavg| %total
---------------------------------------------------------------
Pair    | 0          | 0          | 0          |   0.0 |  0.00
Neigh   | 0          | 0          | 0          |   0.0 |  0.00
Comm    | 0          | 0          | 0          |   0.0 |  0.00
Output  | 0          | 0          | 0          |   0.0 |  0.00
Modify  | 0          | 0          | 0          |   0.0 |  0.00
Other   |            | 1.083e-06  |            |       |100.00

Nlocal:              2 ave           2 max           2 min
Histogram: 1 0 0 0 0 0 0 0 0 0
Nghost:            557 ave         557 max         557 min
Histogram: 1 0 0 0 0 0 0 0 0 0
Neighs:            136 ave         136 max         136 min
Histogram: 1 0 0 0 0 0 0 0 0 0

Total # of neighbors = 136
Ave neighs/atom = 68
Neighbor list builds = 0
Dangerous builds = 0
set atom * x 0.0 y 0.0 z 0.0
Setting atom values ...
  2 settings made for x
  2 settings made for y
  2 settings made for z
change_box all     x final 0 3.2597398960101343 y final 0 3.2597398960101343 z final 0 3.2597398960101343      xy final 0.0 xz final 0.0 yz final 0.0 units box
Changing box ...
  triclinic box = (0 0 0) to (3.2597399 3.2280919 3.2280919) with tilt (0 0 0)
  triclinic box = (0 0 0) to (3.2597399 3.2597399 3.2280919) with tilt (0 0 0)
  triclinic box = (0 0 0) to (3.2597399 3.2597399 3.2597399) with tilt (0 0 0)
  triclinic box = (0 0 0) to (3.2597399 3.2597399 3.2597399) with tilt (0 0 0)
  triclinic box = (0 0 0) to (3.2597399 3.2597399 3.2597399) with tilt (0 0 0)
  triclinic box = (0 0 0) to (3.2597399 3.2597399 3.2597399) with tilt (0 0 0)
echo none
run 0
WARNING: No fixes with time integration, atoms won't move (src/src/verlet.cpp:60)
Per MPI rank memory allocation (min/avg/max) = 3.244 | 3.244 | 3.244 Mbytes
    PotEng          Pxx           E_mol          E_coul    
-17.299185     -219545.72      0              0            
Loop time of 9.16e-07 on 1 procs for 0 steps with 2 atoms

218.3% CPU use with 1 MPI tasks x no OpenMP threads

MPI task timing breakdown:
Section |  min time  |  avg time  |  max time  |%varavg| %total
---------------------------------------------------------------
Pair    | 0          | 0          | 0          |   0.0 |  0.00
Neigh   | 0          | 0          | 0          |   0.0 |  0.00
Comm    | 0          | 0          | 0          |   0.0 |  0.00
Output  | 0          | 0          | 0          |   0.0 |  0.00
Modify  | 0          | 0          | 0          |   0.0 |  0.00
Other   |            | 9.16e-07   |            |       |100.00

Nlocal:              2 ave           2 max           2 min
Histogram: 1 0 0 0 0 0 0 0 0 0
Nghost:            339 ave         339 max         339 min
Histogram: 1 0 0 0 0 0 0 0 0 0
Neighs:            136 ave         136 max         136 min
Histogram: 1 0 0 0 0 0 0 0 0 0

Total # of neighbors = 136
Ave neighs/atom = 68
Neighbor list builds = 0
Dangerous builds = 0
set atom * x 0.0 y 0.0 z 0.0
Setting atom values ...
  2 settings made for x
  2 settings made for y
  2 settings made for z
change_box all     x final 0 3.291387856165572 y final 0 3.291387856165572 z final 0 3.291387856165572      xy final 0.0 xz final 0.0 yz final 0.0 units box
Changing box ...
  triclinic box = (0 0 0) to (3.2913879 3.2597399 3.2597399) with tilt (0 0 0)
  triclinic box = (0 0 0) to (3.2913879 3.2913879 3.2597399) with tilt (0 0 0)
  triclinic box = (0 0 0) to (3.2913879 3.2913879 3.2913879) with tilt (0 0 0)
  triclinic box = (0 0 0) to (3.2913879 3.2913879 3.2913879) with tilt (0 0 0)
  triclinic box = (0 0 0) to (3.2913879 3.2913879 3.2913879) with tilt (0 0 0)
  triclinic box = (0 0 0) to (3.2913879 3.2913879 3.2913879) with tilt (0 0 0)
echo none
run 0
WARNING: No fixes with time integration, atoms won't move (src/src/verlet.cpp:60)
Per MPI rank memory allocation (min/avg/max) = 3.244 | 3.244 | 3.244 Mbytes
    PotEng          Pxx           E_mol          E_coul    
-17.141234     -277730.74      0              0            
Loop time of 8.34e-07 on 1 procs for 0 steps with 2 atoms

359.7% CPU use with 1 MPI tasks x no OpenMP threads

MPI task timing breakdown:
Section |  min time  |  avg time  |  max time  |%varavg| %total
---------------------------------------------------------------
Pair    | 0          | 0          | 0          |   0.0 |  0.00
Neigh   | 0          | 0          | 0          |   0.0 |  0.00
Comm    | 0          | 0          | 0          |   0.0 |  0.00
Output  | 0          | 0          | 0          |   0.0 |  0.00
Modify  | 0          | 0          | 0          |   0.0 |  0.00
Other   |            | 8.34e-07   |            |       |100.00

Nlocal:              2 ave           2 max           2 min
Histogram: 1 0 0 0 0 0 0 0 0 0
Nghost:            339 ave         339 max         339 min
Histogram: 1 0 0 0 0 0 0 0 0 0
Neighs:            136 ave         136 max         136 min
Histogram: 1 0 0 0 0 0 0 0 0 0

Total # of neighbors = 136
Ave neighs/atom = 68
Neighbor list builds = 0
Dangerous builds = 0
set atom * x 0.0 y 0.0 z 0.0
Setting atom values ...
  2 settings made for x
  2 settings made for y
  2 settings made for z
change_box all     x final 0 3.3230358163210107 y final 0 3.3230358163210107 z final 0 3.3230358163210107      xy final 0.0 xz final 0.0 yz final 0.0 units box
Changing box ...
  triclinic box = (0 0 0) to (3.3230358 3.2913879 3.2913879) with tilt (0 0 0)
  triclinic box = (0 0 0) to (3.3230358 3.3230358 3.2913879) with tilt (0 0 0)
  triclinic box = (0 0 0) to (3.3230358 3.3230358 3.3230358) with tilt (0 0 0)
  triclinic box = (0 0 0) to (3.3230358 3.3230358 3.3230358) with tilt (0 0 0)
  triclinic box = (0 0 0) to (3.3230358 3.3230358 3.3230358) with tilt (0 0 0)
  triclinic box = (0 0 0) to (3.3230358 3.3230358 3.3230358) with tilt (0 0 0)
echo none
run 0
WARNING: No fixes with time integration, atoms won't move (src/src/verlet.cpp:60)
Per MPI rank memory allocation (min/avg/max) = 3.244 | 3.244 | 3.244 Mbytes
    PotEng          Pxx           E_mol          E_coul    
-16.941595     -338266.5       0              0            
Loop time of 1e-06 on 1 procs for 0 steps with 2 atoms

0.0% CPU use with 1 MPI tasks x no OpenMP threads

MPI task timing breakdown:
Section |  min time  |  avg time  |  max time  |%varavg| %total
---------------------------------------------------------------
Pair    | 0          | 0          | 0          |   0.0 |  0.00
Neigh   | 0          | 0          | 0          |   0.0 |  0.00
Comm    | 0          | 0          | 0          |   0.0 |  0.00
Output  | 0          | 0          | 0          |   0.0 |  0.00
Modify  | 0          | 0          | 0          |   0.0 |  0.00
Other   |            | 1e-06      |            |       |100.00

Nlocal:              2 ave           2 max           2 min
Histogram: 1 0 0 0 0 0 0 0 0 0
Nghost:            339 ave         339 max         339 min
Histogram: 1 0 0 0 0 0 0 0 0 0
Neighs:            112 ave         112 max         112 min
Histogram: 1 0 0 0 0 0 0 0 0 0

Total # of neighbors = 112
Ave neighs/atom = 56
Neighbor list builds = 0
Dangerous builds = 0
set atom * x 0.0 y 0.0 z 0.0
Setting atom values ...
  2 settings made for x
  2 settings made for y
  2 settings made for z
change_box all     x final 0 3.3546837764764486 y final 0 3.3546837764764486 z final 0 3.3546837764764486      xy final 0.0 xz final 0.0 yz final 0.0 units box
Changing box ...
  triclinic box = (0 0 0) to (3.3546838 3.3230358 3.3230358) with tilt (0 0 0)
  triclinic box = (0 0 0) to (3.3546838 3.3546838 3.3230358) with tilt (0 0 0)
  triclinic box = (0 0 0) to (3.3546838 3.3546838 3.3546838) with tilt (0 0 0)
  triclinic box = (0 0 0) to (3.3546838 3.3546838 3.3546838) with tilt (0 0 0)
  triclinic box = (0 0 0) to (3.3546838 3.3546838 3.3546838) with tilt (0 0 0)
  triclinic box = (0 0 0) to (3.3546838 3.3546838 3.3546838) with tilt (0 0 0)
echo none
run 0
WARNING: No fixes with time integration, atoms won't move (src/src/verlet.cpp:60)
Per MPI rank memory allocation (min/avg/max) = 3.244 | 3.244 | 3.244 Mbytes
    PotEng          Pxx           E_mol          E_coul    
-16.698038     -398682.8       0              0            
Loop time of 1.291e-06 on 1 procs for 0 steps with 2 atoms

154.9% CPU use with 1 MPI tasks x no OpenMP threads

MPI task timing breakdown:
Section |  min time  |  avg time  |  max time  |%varavg| %total
---------------------------------------------------------------
Pair    | 0          | 0          | 0          |   0.0 |  0.00
Neigh   | 0          | 0          | 0          |   0.0 |  0.00
Comm    | 0          | 0          | 0          |   0.0 |  0.00
Output  | 0          | 0          | 0          |   0.0 |  0.00
Modify  | 0          | 0          | 0          |   0.0 |  0.00
Other   |            | 1.291e-06  |            |       |100.00

Nlocal:              2 ave           2 max           2 min
Histogram: 1 0 0 0 0 0 0 0 0 0
Nghost:            339 ave         339 max         339 min
Histogram: 1 0 0 0 0 0 0 0 0 0
Neighs:            112 ave         112 max         112 min
Histogram: 1 0 0 0 0 0 0 0 0 0

Total # of neighbors = 112
Ave neighs/atom = 56
Neighbor list builds = 0
Dangerous builds = 0
set atom * x 0.0 y 0.0 z 0.0
Setting atom values ...
  2 settings made for x
  2 settings made for y
  2 settings made for z
change_box all     x final 0 3.3863317366318872 y final 0 3.3863317366318872 z final 0 3.3863317366318872      xy final 0.0 xz final 0.0 yz final 0.0 units box
Changing box ...
  triclinic box = (0 0 0) to (3.3863317 3.3546838 3.3546838) with tilt (0 0 0)
  triclinic box = (0 0 0) to (3.3863317 3.3863317 3.3546838) with tilt (0 0 0)
  triclinic box = (0 0 0) to (3.3863317 3.3863317 3.3863317) with tilt (0 0 0)
  triclinic box = (0 0 0) to (3.3863317 3.3863317 3.3863317) with tilt (0 0 0)
  triclinic box = (0 0 0) to (3.3863317 3.3863317 3.3863317) with tilt (0 0 0)
  triclinic box = (0 0 0) to (3.3863317 3.3863317 3.3863317) with tilt (0 0 0)
echo none
run 0
WARNING: No fixes with time integration, atoms won't move (src/src/verlet.cpp:60)
Per MPI rank memory allocation (min/avg/max) = 3.244 | 3.244 | 3.244 Mbytes
    PotEng          Pxx           E_mol          E_coul    
-16.409832     -456798.56      0              0            
Loop time of 9.58e-07 on 1 procs for 0 steps with 2 atoms

208.8% CPU use with 1 MPI tasks x no OpenMP threads

MPI task timing breakdown:
Section |  min time  |  avg time  |  max time  |%varavg| %total
---------------------------------------------------------------
Pair    | 0          | 0          | 0          |   0.0 |  0.00
Neigh   | 0          | 0          | 0          |   0.0 |  0.00
Comm    | 0          | 0          | 0          |   0.0 |  0.00
Output  | 0          | 0          | 0          |   0.0 |  0.00
Modify  | 0          | 0          | 0          |   0.0 |  0.00
Other   |            | 9.58e-07   |            |       |100.00

Nlocal:              2 ave           2 max           2 min
Histogram: 1 0 0 0 0 0 0 0 0 0
Nghost:            339 ave         339 max         339 min
Histogram: 1 0 0 0 0 0 0 0 0 0
Neighs:            112 ave         112 max         112 min
Histogram: 1 0 0 0 0 0 0 0 0 0

Total # of neighbors = 112
Ave neighs/atom = 56
Neighbor list builds = 0
Dangerous builds = 0
set atom * x 0.0 y 0.0 z 0.0
Setting atom values ...
  2 settings made for x
  2 settings made for y
  2 settings made for z
change_box all     x final 0 3.4179796967873246 y final 0 3.4179796967873246 z final 0 3.4179796967873246      xy final 0.0 xz final 0.0 yz final 0.0 units box
Changing box ...
  triclinic box = (0 0 0) to (3.4179797 3.3863317 3.3863317) with tilt (0 0 0)
  triclinic box = (0 0 0) to (3.4179797 3.4179797 3.3863317) with tilt (0 0 0)
  triclinic box = (0 0 0) to (3.4179797 3.4179797 3.4179797) with tilt (0 0 0)
  triclinic box = (0 0 0) to (3.4179797 3.4179797 3.4179797) with tilt (0 0 0)
  triclinic box = (0 0 0) to (3.4179797 3.4179797 3.4179797) with tilt (0 0 0)
  triclinic box = (0 0 0) to (3.4179797 3.4179797 3.4179797) with tilt (0 0 0)
echo none
run 0
WARNING: No fixes with time integration, atoms won't move (src/src/verlet.cpp:60)
Per MPI rank memory allocation (min/avg/max) = 3.244 | 3.244 | 3.244 Mbytes
    PotEng          Pxx           E_mol          E_coul    
-16.077679     -510684.73      0              0            
Loop time of 1.083e-06 on 1 procs for 0 steps with 2 atoms

92.3% CPU use with 1 MPI tasks x no OpenMP threads

MPI task timing breakdown:
Section |  min time  |  avg time  |  max time  |%varavg| %total
---------------------------------------------------------------
Pair    | 0          | 0          | 0          |   0.0 |  0.00
Neigh   | 0          | 0          | 0          |   0.0 |  0.00
Comm    | 0          | 0          | 0          |   0.0 |  0.00
Output  | 0          | 0          | 0          |   0.0 |  0.00
Modify  | 0          | 0          | 0          |   0.0 |  0.00
Other   |            | 1.083e-06  |            |       |100.00

Nlocal:              2 ave           2 max           2 min
Histogram: 1 0 0 0 0 0 0 0 0 0
Nghost:            339 ave         339 max         339 min
Histogram: 1 0 0 0 0 0 0 0 0 0
Neighs:            112 ave         112 max         112 min
Histogram: 1 0 0 0 0 0 0 0 0 0

Total # of neighbors = 112
Ave neighs/atom = 56
Neighbor list builds = 0
Dangerous builds = 0
set atom * x 0.0 y 0.0 z 0.0
Setting atom values ...
  2 settings made for x
  2 settings made for y
  2 settings made for z
change_box all     x final 0 3.4496276569427637 y final 0 3.4496276569427637 z final 0 3.4496276569427637      xy final 0.0 xz final 0.0 yz final 0.0 units box
Changing box ...
  triclinic box = (0 0 0) to (3.4496277 3.4179797 3.4179797) with tilt (0 0 0)
  triclinic box = (0 0 0) to (3.4496277 3.4496277 3.4179797) with tilt (0 0 0)
  triclinic box = (0 0 0) to (3.4496277 3.4496277 3.4496277) with tilt (0 0 0)
  triclinic box = (0 0 0) to (3.4496277 3.4496277 3.4496277) with tilt (0 0 0)
  triclinic box = (0 0 0) to (3.4496277 3.4496277 3.4496277) with tilt (0 0 0)
  triclinic box = (0 0 0) to (3.4496277 3.4496277 3.4496277) with tilt (0 0 0)
echo none
run 0
WARNING: No fixes with time integration, atoms won't move (src/src/verlet.cpp:60)
Per MPI rank memory allocation (min/avg/max) = 3.244 | 3.244 | 3.244 Mbytes
    PotEng          Pxx           E_mol          E_coul    
-15.703622     -558768.68      0              0            
Loop time of 7.92e-07 on 1 procs for 0 steps with 2 atoms

0.0% CPU use with 1 MPI tasks x no OpenMP threads

MPI task timing breakdown:
Section |  min time  |  avg time  |  max time  |%varavg| %total
---------------------------------------------------------------
Pair    | 0          | 0          | 0          |   0.0 |  0.00
Neigh   | 0          | 0          | 0          |   0.0 |  0.00
Comm    | 0          | 0          | 0          |   0.0 |  0.00
Output  | 0          | 0          | 0          |   0.0 |  0.00
Modify  | 0          | 0          | 0          |   0.0 |  0.00
Other   |            | 7.92e-07   |            |       |100.00

Nlocal:              2 ave           2 max           2 min
Histogram: 1 0 0 0 0 0 0 0 0 0
Nghost:            339 ave         339 max         339 min
Histogram: 1 0 0 0 0 0 0 0 0 0
Neighs:            112 ave         112 max         112 min
Histogram: 1 0 0 0 0 0 0 0 0 0

Total # of neighbors = 112
Ave neighs/atom = 56
Neighbor list builds = 0
Dangerous builds = 0
set atom * x 0.0 y 0.0 z 0.0
Setting atom values ...
  2 settings made for x
  2 settings made for y
  2 settings made for z
change_box all     x final 0 3.481275617098201 y final 0 3.481275617098201 z final 0 3.481275617098201      xy final 0.0 xz final 0.0 yz final 0.0 units box
Changing box ...
  triclinic box = (0 0 0) to (3.4812756 3.4496277 3.4496277) with tilt (0 0 0)
  triclinic box = (0 0 0) to (3.4812756 3.4812756 3.4496277) with tilt (0 0 0)
  triclinic box = (0 0 0) to (3.4812756 3.4812756 3.4812756) with tilt (0 0 0)
  triclinic box = (0 0 0) to (3.4812756 3.4812756 3.4812756) with tilt (0 0 0)
  triclinic box = (0 0 0) to (3.4812756 3.4812756 3.4812756) with tilt (0 0 0)
  triclinic box = (0 0 0) to (3.4812756 3.4812756 3.4812756) with tilt (0 0 0)
echo none
run 0
WARNING: No fixes with time integration, atoms won't move (src/src/verlet.cpp:60)
Per MPI rank memory allocation (min/avg/max) = 3.244 | 3.244 | 3.244 Mbytes
    PotEng          Pxx           E_mol          E_coul    
-15.290817     -600014.54      0              0            
Loop time of 1e-06 on 1 procs for 0 steps with 2 atoms

200.0% CPU use with 1 MPI tasks x no OpenMP threads

MPI task timing breakdown:
Section |  min time  |  avg time  |  max time  |%varavg| %total
---------------------------------------------------------------
Pair    | 0          | 0          | 0          |   0.0 |  0.00
Neigh   | 0          | 0          | 0          |   0.0 |  0.00
Comm    | 0          | 0          | 0          |   0.0 |  0.00
Output  | 0          | 0          | 0          |   0.0 |  0.00
Modify  | 0          | 0          | 0          |   0.0 |  0.00
Other   |            | 1e-06      |            |       |100.00

Nlocal:              2 ave           2 max           2 min
Histogram: 1 0 0 0 0 0 0 0 0 0
Nghost:            339 ave         339 max         339 min
Histogram: 1 0 0 0 0 0 0 0 0 0
Neighs:            112 ave         112 max         112 min
Histogram: 1 0 0 0 0 0 0 0 0 0

Total # of neighbors = 112
Ave neighs/atom = 56
Neighbor list builds = 0
Dangerous builds = 0
set atom * x 0.0 y 0.0 z 0.0
Setting atom values ...
  2 settings made for x
  2 settings made for y
  2 settings made for z
change_box all     x final 0 9.494388046631457 y final 0 9.494388046631457 z final 0 9.494388046631457      xy final 0.0 xz final 0.0 yz final 0.0 units box
Changing box ...
  triclinic box = (0 0 0) to (9.494388 3.4812756 3.4812756) with tilt (0 0 0)
  triclinic box = (0 0 0) to (9.494388 9.494388 3.4812756) with tilt (0 0 0)
  triclinic box = (0 0 0) to (9.494388 9.494388 9.494388) with tilt (0 0 0)
  triclinic box = (0 0 0) to (9.494388 9.494388 9.494388) with tilt (0 0 0)
  triclinic box = (0 0 0) to (9.494388 9.494388 9.494388) with tilt (0 0 0)
  triclinic box = (0 0 0) to (9.494388 9.494388 9.494388) with tilt (0 0 0)
echo none
Created 52 atoms
  using lattice units in triclinic box = (0 0 0) to (9.494388 9.494388 9.494388) with tilt (0 0 0)
  create_atoms CPU = 0.000 seconds
Setting atom values ...
  1 settings made for type
Setting atom values ...
  1 settings made for type
Setting atom values ...
  1 settings made for type
Setting atom values ...
  1 settings made for type
Setting atom values ...
  1 settings made for type
Setting atom values ...
  1 settings made for type
Setting atom values ...
  1 settings made for type
Setting atom values ...
  1 settings made for type
Setting atom values ...
  1 settings made for type
Setting atom values ...
  1 settings made for type
Setting atom values ...
  1 settings made for type
Setting atom values ...
  1 settings made for type
Setting atom values ...
  1 settings made for type
Setting atom values ...
  1 settings made for type
Setting atom values ...
  1 settings made for type
Setting atom values ...
  1 settings made for type
Setting atom values ...
  1 settings made for type
Setting atom values ...
  1 settings made for type
Setting atom values ...
  1 settings made for type
Setting atom values ...
  1 settings made for type
Setting atom values ...
  1 settings made for type
Setting atom values ...
  1 settings made for type
Setting atom values ...
  1 settings made for type
Setting atom values ...
  1 settings made for type
Setting atom values ...
  1 settings made for type
Setting atom values ...
  1 settings made for type
Setting atom values ...
  1 settings made for type
Setting atom values ...
  1 settings made for type
Setting atom values ...
  1 settings made for type
Setting atom values ...
  1 settings made for type
Setting atom values ...
  1 settings made for type
Setting atom values ...
  1 settings made for type
Setting atom values ...
  1 settings made for type
Setting atom values ...
  1 settings made for type
Setting atom values ...
  1 settings made for type
Setting atom values ...
  1 settings made for type
Setting atom values ...
  1 settings made for type
Setting atom values ...
  1 settings made for type
Setting atom values ...
  1 settings made for type
Setting atom values ...
  1 settings made for type
Setting atom values ...
  1 settings made for type
Setting atom values ...
  1 settings made for type
Setting atom values ...
  1 settings made for type
Setting atom values ...
  1 settings made for type
Setting atom values ...
  1 settings made for type
Setting atom values ...
  1 settings made for type
Setting atom values ...
  1 settings made for type
Setting atom values ...
  1 settings made for type
Setting atom values ...
  1 settings made for type
Setting atom values ...
  1 settings made for type
Setting atom values ...
  1 settings made for type
Setting atom values ...
  1 settings made for type
run 0
WARNING: No fixes with time integration, atoms won't move (src/src/verlet.cpp:60)
Per MPI rank memory allocation (min/avg/max) = 3.251 | 3.251 | 3.251 Mbytes
    PotEng          Pxx           E_mol          E_coul    
-473.03968      157.21793      0              0            
Loop time of 1.375e-06 on 1 procs for 0 steps with 54 atoms

145.5% CPU use with 1 MPI tasks x no OpenMP threads

MPI task timing breakdown:
Section |  min time  |  avg time  |  max time  |%varavg| %total
---------------------------------------------------------------
Pair    | 0          | 0          | 0          |   0.0 |  0.00
Neigh   | 0          | 0          | 0          |   0.0 |  0.00
Comm    | 0          | 0          | 0          |   0.0 |  0.00
Output  | 0          | 0          | 0          |   0.0 |  0.00
Modify  | 0          | 0          | 0          |   0.0 |  0.00
Other   |            | 1.375e-06  |            |       |100.00

Nlocal:             54 ave          54 max          54 min
Histogram: 1 0 0 0 0 0 0 0 0 0
Nghost:           1187 ave        1187 max        1187 min
Histogram: 1 0 0 0 0 0 0 0 0 0
Neighs:           3672 ave        3672 max        3672 min
Histogram: 1 0 0 0 0 0 0 0 0 0

Total # of neighbors = 3672
Ave neighs/atom = 68
Neighbor list builds = 0
Dangerous builds = 0
set atom * x 0.0 y 0.0 z 0.0
Setting atom values ...
  54 settings made for x
  54 settings made for y
  54 settings made for z
change_box all     x final 0 9.304500285698827 y final 0 9.494388046631457 z final 0 9.494388046631457      xy final 0.0 xz final 0.0 yz final 0.0 units box
Changing box ...
  triclinic box = (0 0 0) to (9.3045003 9.494388 9.494388) with tilt (0 0 0)
  triclinic box = (0 0 0) to (9.3045003 9.494388 9.494388) with tilt (0 0 0)
  triclinic box = (0 0 0) to (9.3045003 9.494388 9.494388) with tilt (0 0 0)
  triclinic box = (0 0 0) to (9.3045003 9.494388 9.494388) with tilt (0 0 0)
  triclinic box = (0 0 0) to (9.3045003 9.494388 9.494388) with tilt (0 0 0)
  triclinic box = (0 0 0) to (9.3045003 9.494388 9.494388) with tilt (0 0 0)
echo none
run 0
WARNING: No fixes with time integration, atoms won't move (src/src/verlet.cpp:60)
Per MPI rank memory allocation (min/avg/max) = 3.251 | 3.251 | 3.251 Mbytes
    PotEng          Pxx           E_mol          E_coul    
-472.46566      108212.71      0              0            
Loop time of 8.33e-07 on 1 procs for 0 steps with 54 atoms

240.1% CPU use with 1 MPI tasks x no OpenMP threads

MPI task timing breakdown:
Section |  min time  |  avg time  |  max time  |%varavg| %total
---------------------------------------------------------------
Pair    | 0          | 0          | 0          |   0.0 |  0.00
Neigh   | 0          | 0          | 0          |   0.0 |  0.00
Comm    | 0          | 0          | 0          |   0.0 |  0.00
Output  | 0          | 0          | 0          |   0.0 |  0.00
Modify  | 0          | 0          | 0          |   0.0 |  0.00
Other   |            | 8.33e-07   |            |       |100.00

Nlocal:             54 ave          54 max          54 min
Histogram: 1 0 0 0 0 0 0 0 0 0
Nghost:           1187 ave        1187 max        1187 min
Histogram: 1 0 0 0 0 0 0 0 0 0
Neighs:           3888 ave        3888 max        3888 min
Histogram: 1 0 0 0 0 0 0 0 0 0

Total # of neighbors = 3888
Ave neighs/atom = 72
Neighbor list builds = 0
Dangerous builds = 0
set atom * x 0.0 y 0.0 z 0.0
Setting atom values ...
  54 settings made for x
  54 settings made for y
  54 settings made for z
change_box all     x final 0 9.399444166165143 y final 0 9.494388046631457 z final 0 9.494388046631457      xy final 0.0 xz final 0.0 yz final 0.0 units box
Changing box ...
  triclinic box = (0 0 0) to (9.3994442 9.494388 9.494388) with tilt (0 0 0)
  triclinic box = (0 0 0) to (9.3994442 9.494388 9.494388) with tilt (0 0 0)
  triclinic box = (0 0 0) to (9.3994442 9.494388 9.494388) with tilt (0 0 0)
  triclinic box = (0 0 0) to (9.3994442 9.494388 9.494388) with tilt (0 0 0)
  triclinic box = (0 0 0) to (9.3994442 9.494388 9.494388) with tilt (0 0 0)
  triclinic box = (0 0 0) to (9.3994442 9.494388 9.494388) with tilt (0 0 0)
echo none
run 0
WARNING: No fixes with time integration, atoms won't move (src/src/verlet.cpp:60)
Per MPI rank memory allocation (min/avg/max) = 3.251 | 3.251 | 3.251 Mbytes
    PotEng          Pxx           E_mol          E_coul    
-472.89724      53500.593      0              0            
Loop time of 6.66e-07 on 1 procs for 0 steps with 54 atoms

150.2% CPU use with 1 MPI tasks x no OpenMP threads

MPI task timing breakdown:
Section |  min time  |  avg time  |  max time  |%varavg| %total
---------------------------------------------------------------
Pair    | 0          | 0          | 0          |   0.0 |  0.00
Neigh   | 0          | 0          | 0          |   0.0 |  0.00
Comm    | 0          | 0          | 0          |   0.0 |  0.00
Output  | 0          | 0          | 0          |   0.0 |  0.00
Modify  | 0          | 0          | 0          |   0.0 |  0.00
Other   |            | 6.66e-07   |            |       |100.00

Nlocal:             54 ave          54 max          54 min
Histogram: 1 0 0 0 0 0 0 0 0 0
Nghost:           1187 ave        1187 max        1187 min
Histogram: 1 0 0 0 0 0 0 0 0 0
Neighs:           3672 ave        3672 max        3672 min
Histogram: 1 0 0 0 0 0 0 0 0 0

Total # of neighbors = 3672
Ave neighs/atom = 68
Neighbor list builds = 0
Dangerous builds = 0
set atom * x 0.0 y 0.0 z 0.0
Setting atom values ...
  54 settings made for x
  54 settings made for y
  54 settings made for z
change_box all     x final 0 9.494388046631457 y final 0 9.494388046631457 z final 0 9.494388046631457      xy final 0.0 xz final 0.0 yz final 0.0 units box
Changing box ...
  triclinic box = (0 0 0) to (9.494388 9.494388 9.494388) with tilt (0 0 0)
  triclinic box = (0 0 0) to (9.494388 9.494388 9.494388) with tilt (0 0 0)
  triclinic box = (0 0 0) to (9.494388 9.494388 9.494388) with tilt (0 0 0)
  triclinic box = (0 0 0) to (9.494388 9.494388 9.494388) with tilt (0 0 0)
  triclinic box = (0 0 0) to (9.494388 9.494388 9.494388) with tilt (0 0 0)
  triclinic box = (0 0 0) to (9.494388 9.494388 9.494388) with tilt (0 0 0)
echo none
run 0
WARNING: No fixes with time integration, atoms won't move (src/src/verlet.cpp:60)
Per MPI rank memory allocation (min/avg/max) = 3.251 | 3.251 | 3.251 Mbytes
    PotEng          Pxx           E_mol          E_coul    
-473.03968      157.21793      0              0            
Loop time of 7.5e-07 on 1 procs for 0 steps with 54 atoms

266.7% CPU use with 1 MPI tasks x no OpenMP threads

MPI task timing breakdown:
Section |  min time  |  avg time  |  max time  |%varavg| %total
---------------------------------------------------------------
Pair    | 0          | 0          | 0          |   0.0 |  0.00
Neigh   | 0          | 0          | 0          |   0.0 |  0.00
Comm    | 0          | 0          | 0          |   0.0 |  0.00
Output  | 0          | 0          | 0          |   0.0 |  0.00
Modify  | 0          | 0          | 0          |   0.0 |  0.00
Other   |            | 7.5e-07    |            |       |100.00

Nlocal:             54 ave          54 max          54 min
Histogram: 1 0 0 0 0 0 0 0 0 0
Nghost:           1187 ave        1187 max        1187 min
Histogram: 1 0 0 0 0 0 0 0 0 0
Neighs:           3672 ave        3672 max        3672 min
Histogram: 1 0 0 0 0 0 0 0 0 0

Total # of neighbors = 3672
Ave neighs/atom = 68
Neighbor list builds = 0
Dangerous builds = 0
set atom * x 0.0 y 0.0 z 0.0
Setting atom values ...
  54 settings made for x
  54 settings made for y
  54 settings made for z
change_box all     x final 0 9.58933192709777 y final 0 9.494388046631457 z final 0 9.494388046631457      xy final 0.0 xz final 0.0 yz final 0.0 units box
Changing box ...
  triclinic box = (0 0 0) to (9.5893319 9.494388 9.494388) with tilt (0 0 0)
  triclinic box = (0 0 0) to (9.5893319 9.494388 9.494388) with tilt (0 0 0)
  triclinic box = (0 0 0) to (9.5893319 9.494388 9.494388) with tilt (0 0 0)
  triclinic box = (0 0 0) to (9.5893319 9.494388 9.494388) with tilt (0 0 0)
  triclinic box = (0 0 0) to (9.5893319 9.494388 9.494388) with tilt (0 0 0)
  triclinic box = (0 0 0) to (9.5893319 9.494388 9.494388) with tilt (0 0 0)
echo none
run 0
WARNING: No fixes with time integration, atoms won't move (src/src/verlet.cpp:60)
Per MPI rank memory allocation (min/avg/max) = 3.251 | 3.251 | 3.251 Mbytes
    PotEng          Pxx           E_mol          E_coul    
-472.90346     -50632.976      0              0            
Loop time of 8.75e-07 on 1 procs for 0 steps with 54 atoms

228.6% CPU use with 1 MPI tasks x no OpenMP threads

MPI task timing breakdown:
Section |  min time  |  avg time  |  max time  |%varavg| %total
---------------------------------------------------------------
Pair    | 0          | 0          | 0          |   0.0 |  0.00
Neigh   | 0          | 0          | 0          |   0.0 |  0.00
Comm    | 0          | 0          | 0          |   0.0 |  0.00
Output  | 0          | 0          | 0          |   0.0 |  0.00
Modify  | 0          | 0          | 0          |   0.0 |  0.00
Other   |            | 8.75e-07   |            |       |100.00

Nlocal:             54 ave          54 max          54 min
Histogram: 1 0 0 0 0 0 0 0 0 0
Nghost:           1187 ave        1187 max        1187 min
Histogram: 1 0 0 0 0 0 0 0 0 0
Neighs:           3672 ave        3672 max        3672 min
Histogram: 1 0 0 0 0 0 0 0 0 0

Total # of neighbors = 3672
Ave neighs/atom = 68
Neighbor list builds = 0
Dangerous builds = 0
set atom * x 0.0 y 0.0 z 0.0
Setting atom values ...
  54 settings made for x
  54 settings made for y
  54 settings made for z
change_box all     x final 0 9.684275807564086 y final 0 9.494388046631457 z final 0 9.494388046631457      xy final 0.0 xz final 0.0 yz final 0.0 units box
Changing box ...
  triclinic box = (0 0 0) to (9.6842758 9.494388 9.494388) with tilt (0 0 0)
  triclinic box = (0 0 0) to (9.6842758 9.494388 9.494388) with tilt (0 0 0)
  triclinic box = (0 0 0) to (9.6842758 9.494388 9.494388) with tilt (0 0 0)
  triclinic box = (0 0 0) to (9.6842758 9.494388 9.494388) with tilt (0 0 0)
  triclinic box = (0 0 0) to (9.6842758 9.494388 9.494388) with tilt (0 0 0)
  triclinic box = (0 0 0) to (9.6842758 9.494388 9.494388) with tilt (0 0 0)
echo none
run 0
WARNING: No fixes with time integration, atoms won't move (src/src/verlet.cpp:60)
Per MPI rank memory allocation (min/avg/max) = 3.251 | 3.251 | 3.251 Mbytes
    PotEng          Pxx           E_mol          E_coul    
-472.5053      -97739.065      0              0            
Loop time of 1.041e-06 on 1 procs for 0 steps with 54 atoms

192.1% CPU use with 1 MPI tasks x no OpenMP threads

MPI task timing breakdown:
Section |  min time  |  avg time  |  max time  |%varavg| %total
---------------------------------------------------------------
Pair    | 0          | 0          | 0          |   0.0 |  0.00
Neigh   | 0          | 0          | 0          |   0.0 |  0.00
Comm    | 0          | 0          | 0          |   0.0 |  0.00
Output  | 0          | 0          | 0          |   0.0 |  0.00
Modify  | 0          | 0          | 0          |   0.0 |  0.00
Other   |            | 1.041e-06  |            |       |100.00

Nlocal:             54 ave          54 max          54 min
Histogram: 1 0 0 0 0 0 0 0 0 0
Nghost:           1187 ave        1187 max        1187 min
Histogram: 1 0 0 0 0 0 0 0 0 0
Neighs:           3672 ave        3672 max        3672 min
Histogram: 1 0 0 0 0 0 0 0 0 0

Total # of neighbors = 3672
Ave neighs/atom = 68
Neighbor list builds = 0
Dangerous builds = 0
set atom * x 0.0 y 0.0 z 0.0
Setting atom values ...
  54 settings made for x
  54 settings made for y
  54 settings made for z
change_box all     x final 0 9.494388046631457 y final 0 9.49440703538856 z final 0 9.49436905791233      xy final 0.0 xz final 0.0 yz final 0.01898873811582466 units box
Changing box ...
  triclinic box = (0 0 0) to (9.494388 9.494388 9.494388) with tilt (0 0 0)
  triclinic box = (0 0 0) to (9.494388 9.494407 9.494388) with tilt (0 0 0)
  triclinic box = (0 0 0) to (9.494388 9.494407 9.4943691) with tilt (0 0 0)
  triclinic box = (0 0 0) to (9.494388 9.494407 9.4943691) with tilt (0 0 0)
  triclinic box = (0 0 0) to (9.494388 9.494407 9.4943691) with tilt (0 0 0)
  triclinic box = (0 0 0) to (9.494388 9.494407 9.4943691) with tilt (0 0 0.018988738)
echo none
run 0
WARNING: No fixes with time integration, atoms won't move (src/src/verlet.cpp:60)
Per MPI rank memory allocation (min/avg/max) = 3.251 | 3.251 | 3.251 Mbytes
    PotEng          Pxx           E_mol          E_coul    
-473.03796      170.98165      0              0            
Loop time of 7.08e-07 on 1 procs for 0 steps with 54 atoms

423.7% CPU use with 1 MPI tasks x no OpenMP threads

MPI task timing breakdown:
Section |  min time  |  avg time  |  max time  |%varavg| %total
---------------------------------------------------------------
Pair    | 0          | 0          | 0          |   0.0 |  0.00
Neigh   | 0          | 0          | 0          |   0.0 |  0.00
Comm    | 0          | 0          | 0          |   0.0 |  0.00
Output  | 0          | 0          | 0          |   0.0 |  0.00
Modify  | 0          | 0          | 0          |   0.0 |  0.00
Other   |            | 7.08e-07   |            |       |100.00

Nlocal:             54 ave          54 max          54 min
Histogram: 1 0 0 0 0 0 0 0 0 0
Nghost:           1187 ave        1187 max        1187 min
Histogram: 1 0 0 0 0 0 0 0 0 0
Neighs:           3672 ave        3672 max        3672 min
Histogram: 1 0 0 0 0 0 0 0 0 0

Total # of neighbors = 3672
Ave neighs/atom = 68
Neighbor list builds = 0
Dangerous builds = 0
set atom * x 0.0 y 0.0 z 0.0
Setting atom values ...
  54 settings made for x
  54 settings made for y
  54 settings made for z
change_box all     x final 0 9.494388046631457 y final 0 9.494588613460477 z final 0 9.494187484039276      xy final 0.0 xz final 0.0 yz final 0.0617122186462553 units box
Changing box ...
  triclinic box = (0 0 0) to (9.494388 9.494407 9.4943691) with tilt (0 0 0.018988738)
  triclinic box = (0 0 0) to (9.494388 9.4945886 9.4943691) with tilt (0 0 0.018988738)
  triclinic box = (0 0 0) to (9.494388 9.4945886 9.4941875) with tilt (0 0 0.018988738)
  triclinic box = (0 0 0) to (9.494388 9.4945886 9.4941875) with tilt (0 0 0.018988738)
  triclinic box = (0 0 0) to (9.494388 9.4945886 9.4941875) with tilt (0 0 0.018988738)
  triclinic box = (0 0 0) to (9.494388 9.4945886 9.4941875) with tilt (0 0 0.061712219)
echo none
run 0
WARNING: No fixes with time integration, atoms won't move (src/src/verlet.cpp:60)
Per MPI rank memory allocation (min/avg/max) = 3.251 | 3.251 | 3.251 Mbytes
    PotEng          Pxx           E_mol          E_coul    
-473.02153      302.55347      0              0            
Loop time of 8.75e-07 on 1 procs for 0 steps with 54 atoms

114.3% CPU use with 1 MPI tasks x no OpenMP threads

MPI task timing breakdown:
Section |  min time  |  avg time  |  max time  |%varavg| %total
---------------------------------------------------------------
Pair    | 0          | 0          | 0          |   0.0 |  0.00
Neigh   | 0          | 0          | 0          |   0.0 |  0.00
Comm    | 0          | 0          | 0          |   0.0 |  0.00
Output  | 0          | 0          | 0          |   0.0 |  0.00
Modify  | 0          | 0          | 0          |   0.0 |  0.00
Other   |            | 8.75e-07   |            |       |100.00

Nlocal:             54 ave          54 max          54 min
Histogram: 1 0 0 0 0 0 0 0 0 0
Nghost:           1187 ave        1187 max        1187 min
Histogram: 1 0 0 0 0 0 0 0 0 0
Neighs:           3672 ave        3672 max        3672 min
Histogram: 1 0 0 0 0 0 0 0 0 0

Total # of neighbors = 3672
Ave neighs/atom = 68
Neighbor list builds = 0
Dangerous builds = 0
set atom * x 0.0 y 0.0 z 0.0
Setting atom values ...
  54 settings made for x
  54 settings made for y
  54 settings made for z
change_box all     x final 0 9.494388046631457 y final 0 9.494962439733412 z final 0 9.49381368827713      xy final 0.0 xz final 0.0 yz final 0.10443195057104844 units box
Changing box ...
  triclinic box = (0 0 0) to (9.494388 9.4945886 9.4941875) with tilt (0 0 0.061712219)
  triclinic box = (0 0 0) to (9.494388 9.4949624 9.4941875) with tilt (0 0 0.061712219)
  triclinic box = (0 0 0) to (9.494388 9.4949624 9.4938137) with tilt (0 0 0.061712219)
  triclinic box = (0 0 0) to (9.494388 9.4949624 9.4938137) with tilt (0 0 0.061712219)
  triclinic box = (0 0 0) to (9.494388 9.4949624 9.4938137) with tilt (0 0 0.061712219)
  triclinic box = (0 0 0) to (9.494388 9.4949624 9.4938137) with tilt (0 0 0.10443195)
echo none
run 0
WARNING: No fixes with time integration, atoms won't move (src/src/verlet.cpp:60)
Per MPI rank memory allocation (min/avg/max) = 3.251 | 3.251 | 3.251 Mbytes
    PotEng          Pxx           E_mol          E_coul    
-472.98771      573.39047      0              0            
Loop time of 8.33e-07 on 1 procs for 0 steps with 54 atoms

0.0% CPU use with 1 MPI tasks x no OpenMP threads

MPI task timing breakdown:
Section |  min time  |  avg time  |  max time  |%varavg| %total
---------------------------------------------------------------
Pair    | 0          | 0          | 0          |   0.0 |  0.00
Neigh   | 0          | 0          | 0          |   0.0 |  0.00
Comm    | 0          | 0          | 0          |   0.0 |  0.00
Output  | 0          | 0          | 0          |   0.0 |  0.00
Modify  | 0          | 0          | 0          |   0.0 |  0.00
Other   |            | 8.33e-07   |            |       |100.00

Nlocal:             54 ave          54 max          54 min
Histogram: 1 0 0 0 0 0 0 0 0 0
Nghost:           1187 ave        1187 max        1187 min
Histogram: 1 0 0 0 0 0 0 0 0 0
Neighs:           3672 ave        3672 max        3672 min
Histogram: 1 0 0 0 0 0 0 0 0 0

Total # of neighbors = 3672
Ave neighs/atom = 68
Neighbor list builds = 0
Dangerous builds = 0
set atom * x 0.0 y 0.0 z 0.0
Setting atom values ...
  54 settings made for x
  54 settings made for y
  54 settings made for z
change_box all     x final 0 9.494388046631457 y final 0 9.495528491501702 z final 0 9.493247738732473      xy final 0.0 xz final 0.0 yz final 0.14714533995035334 units box
Changing box ...
  triclinic box = (0 0 0) to (9.494388 9.4949624 9.4938137) with tilt (0 0 0.10443195)
  triclinic box = (0 0 0) to (9.494388 9.4955285 9.4938137) with tilt (0 0 0.10443195)
  triclinic box = (0 0 0) to (9.494388 9.4955285 9.4932477) with tilt (0 0 0.10443195)
  triclinic box = (0 0 0) to (9.494388 9.4955285 9.4932477) with tilt (0 0 0.10443195)
  triclinic box = (0 0 0) to (9.494388 9.4955285 9.4932477) with tilt (0 0 0.10443195)
  triclinic box = (0 0 0) to (9.494388 9.4955285 9.4932477) with tilt (0 0 0.14714534)
echo none
run 0
WARNING: No fixes with time integration, atoms won't move (src/src/verlet.cpp:60)
Per MPI rank memory allocation (min/avg/max) = 3.251 | 3.251 | 3.251 Mbytes
    PotEng          Pxx           E_mol          E_coul    
-472.93649      983.37517      0              0            
Loop time of 8.75e-07 on 1 procs for 0 steps with 54 atoms

114.3% CPU use with 1 MPI tasks x no OpenMP threads

MPI task timing breakdown:
Section |  min time  |  avg time  |  max time  |%varavg| %total
---------------------------------------------------------------
Pair    | 0          | 0          | 0          |   0.0 |  0.00
Neigh   | 0          | 0          | 0          |   0.0 |  0.00
Comm    | 0          | 0          | 0          |   0.0 |  0.00
Output  | 0          | 0          | 0          |   0.0 |  0.00
Modify  | 0          | 0          | 0          |   0.0 |  0.00
Other   |            | 8.75e-07   |            |       |100.00

Nlocal:             54 ave          54 max          54 min
Histogram: 1 0 0 0 0 0 0 0 0 0
Nghost:           1187 ave        1187 max        1187 min
Histogram: 1 0 0 0 0 0 0 0 0 0
Neighs:           3672 ave        3672 max        3672 min
Histogram: 1 0 0 0 0 0 0 0 0 0

Total # of neighbors = 3672
Ave neighs/atom = 68
Neighbor list builds = 0
Dangerous builds = 0
set atom * x 0.0 y 0.0 z 0.0
Setting atom values ...
  54 settings made for x
  54 settings made for y
  54 settings made for z
change_box all     x final 0 9.494388046631457 y final 0 9.49628673439099 z final 0 9.492489738495593      xy final 0.0 xz final 0.0 yz final 0.18984979476991184 units box
Changing box ...
  triclinic box = (0 0 0) to (9.494388 9.4955285 9.4932477) with tilt (0 0 0.14714534)
  triclinic box = (0 0 0) to (9.494388 9.4962867 9.4932477) with tilt (0 0 0.14714534)
  triclinic box = (0 0 0) to (9.494388 9.4962867 9.4924897) with tilt (0 0 0.14714534)
  triclinic box = (0 0 0) to (9.494388 9.4962867 9.4924897) with tilt (0 0 0.14714534)
  triclinic box = (0 0 0) to (9.494388 9.4962867 9.4924897) with tilt (0 0 0.14714534)
  triclinic box = (0 0 0) to (9.494388 9.4962867 9.4924897) with tilt (0 0 0.18984979)
echo none
run 0
WARNING: No fixes with time integration, atoms won't move (src/src/verlet.cpp:60)
Per MPI rank memory allocation (min/avg/max) = 3.251 | 3.251 | 3.251 Mbytes
    PotEng          Pxx           E_mol          E_coul    
-472.86786      1532.343       0              0            
Loop time of 5.83e-07 on 1 procs for 0 steps with 54 atoms

0.0% CPU use with 1 MPI tasks x no OpenMP threads

MPI task timing breakdown:
Section |  min time  |  avg time  |  max time  |%varavg| %total
---------------------------------------------------------------
Pair    | 0          | 0          | 0          |   0.0 |  0.00
Neigh   | 0          | 0          | 0          |   0.0 |  0.00
Comm    | 0          | 0          | 0          |   0.0 |  0.00
Output  | 0          | 0          | 0          |   0.0 |  0.00
Modify  | 0          | 0          | 0          |   0.0 |  0.00
Other   |            | 5.83e-07   |            |       |100.00

Nlocal:             54 ave          54 max          54 min
Histogram: 1 0 0 0 0 0 0 0 0 0
Nghost:           1187 ave        1187 max        1187 min
Histogram: 1 0 0 0 0 0 0 0 0 0
Neighs:           3672 ave        3672 max        3672 min
Histogram: 1 0 0 0 0 0 0 0 0 0

Total # of neighbors = 3672
Ave neighs/atom = 68
Neighbor list builds = 0
Dangerous builds = 0
set atom * x 0.0 y 0.0 z 0.0
Setting atom values ...
  54 settings made for x
  54 settings made for y
  54 settings made for z
change_box all     x final 0 9.494388046631457 y final 0 9.494388046631457 z final 0 9.494388046631457      xy final 0.0 xz final 0.0 yz final 0.0 units box
Changing box ...
  triclinic box = (0 0 0) to (9.494388 9.4962867 9.4924897) with tilt (0 0 0.18984979)
  triclinic box = (0 0 0) to (9.494388 9.494388 9.4924897) with tilt (0 0 0.18984979)
  triclinic box = (0 0 0) to (9.494388 9.494388 9.494388) with tilt (0 0 0.18984979)
  triclinic box = (0 0 0) to (9.494388 9.494388 9.494388) with tilt (0 0 0.18984979)
  triclinic box = (0 0 0) to (9.494388 9.494388 9.494388) with tilt (0 0 0.18984979)
  triclinic box = (0 0 0) to (9.494388 9.494388 9.494388) with tilt (0 0 0)
echo none
run 0
WARNING: No fixes with time integration, atoms won't move (src/src/verlet.cpp:60)
Per MPI rank memory allocation (min/avg/max) = 3.251 | 3.251 | 3.251 Mbytes
    PotEng          Pxx           E_mol          E_coul    
-473.03874      160.13866      0              0            
Loop time of 1.667e-06 on 1 procs for 0 steps with 54 atoms

120.0% CPU use with 1 MPI tasks x no OpenMP threads

MPI task timing breakdown:
Section |  min time  |  avg time  |  max time  |%varavg| %total
---------------------------------------------------------------
Pair    | 0          | 0          | 0          |   0.0 |  0.00
[...]
  triclinic box = (0 0 0) to (8.9302633 10.937294 31.553538) with tilt (-8.9302633 0 0)
echo none
run 0
Per MPI rank memory allocation (min/avg/max) = 3.33 | 3.33 | 3.33 Mbytes
    PotEng          Pxx           E_mol          E_coul    
-663.78527     -1545.5301      0              0            
Loop time of 7.5e-07 on 1 procs for 0 steps with 80 atoms

0.0% CPU use with 1 MPI tasks x no OpenMP threads

MPI task timing breakdown:
Section |  min time  |  avg time  |  max time  |%varavg| %total
---------------------------------------------------------------
Pair    | 0          | 0          | 0          |   0.0 |  0.00
Neigh   | 0          | 0          | 0          |   0.0 |  0.00
Comm    | 0          | 0          | 0          |   0.0 |  0.00
Output  | 0          | 0          | 0          |   0.0 |  0.00
Modify  | 0          | 0          | 0          |   0.0 |  0.00
Other   |            | 7.5e-07    |            |       |100.00

Nlocal:             80 ave          80 max          80 min
Histogram: 1 0 0 0 0 0 0 0 0 0
Nghost:            587 ave         587 max         587 min
Histogram: 1 0 0 0 0 0 0 0 0 0
Neighs:           4240 ave        4240 max        4240 min
Histogram: 1 0 0 0 0 0 0 0 0 0

Total # of neighbors = 4240
Ave neighs/atom = 53
Neighbor list builds = 0
Dangerous builds = 0
set atom * x 0.0 y 0.0 z 0.0
Setting atom values ...
  80 settings made for x
  80 settings made for y
  80 settings made for z
change_box all     x final 0 8.930263280194097 y final 0 10.937294152594335 z final 0 31.553538168390805      xy final -8.930263280194099 xz final 0.0 yz final 0.0 units box
Changing box ...
  triclinic box = (0 0 0) to (8.9302633 10.937294 31.553538) with tilt (-8.9302633 0 0)
  triclinic box = (0 0 0) to (8.9302633 10.937294 31.553538) with tilt (-8.9302633 0 0)
  triclinic box = (0 0 0) to (8.9302633 10.937294 31.553538) with tilt (-8.9302633 0 0)
  triclinic box = (0 0 0) to (8.9302633 10.937294 31.553538) with tilt (-8.9302633 0 0)
  triclinic box = (0 0 0) to (8.9302633 10.937294 31.553538) with tilt (-8.9302633 0 0)
  triclinic box = (0 0 0) to (8.9302633 10.937294 31.553538) with tilt (-8.9302633 0 0)
echo none
run 0
Per MPI rank memory allocation (min/avg/max) = 3.33 | 3.33 | 3.33 Mbytes
    PotEng          Pxx           E_mol          E_coul    
-663.78527     -1545.5301      0              0            
Loop time of 8.33e-07 on 1 procs for 0 steps with 80 atoms

360.1% CPU use with 1 MPI tasks x no OpenMP threads

MPI task timing breakdown:
Section |  min time  |  avg time  |  max time  |%varavg| %total
---------------------------------------------------------------
Pair    | 0          | 0          | 0          |   0.0 |  0.00
Neigh   | 0          | 0          | 0          |   0.0 |  0.00
Comm    | 0          | 0          | 0          |   0.0 |  0.00
Output  | 0          | 0          | 0          |   0.0 |  0.00
Modify  | 0          | 0          | 0          |   0.0 |  0.00
Other   |            | 8.33e-07   |            |       |100.00

Nlocal:             80 ave          80 max          80 min
Histogram: 1 0 0 0 0 0 0 0 0 0
Nghost:            587 ave         587 max         587 min
Histogram: 1 0 0 0 0 0 0 0 0 0
Neighs:           4240 ave        4240 max        4240 min
Histogram: 1 0 0 0 0 0 0 0 0 0

Total # of neighbors = 4240
Ave neighs/atom = 53
Neighbor list builds = 0
Dangerous builds = 0
set atom * x 0.0 y 0.0 z 0.0
Setting atom values ...
  80 settings made for x
  80 settings made for y
  80 settings made for z
change_box all     x final 0 8.931121941854123 y final 0 10.938345794058712 z final 0 31.556572100606825      xy final -8.931121941854125 xz final 0.0 yz final 0.0 units box
Changing box ...
  triclinic box = (0 0 0) to (8.9311219 10.937294 31.553538) with tilt (-8.9302633 0 0)
  triclinic box = (0 0 0) to (8.9311219 10.938346 31.553538) with tilt (-8.9302633 0 0)
  triclinic box = (0 0 0) to (8.9311219 10.938346 31.556572) with tilt (-8.9302633 0 0)
  triclinic box = (0 0 0) to (8.9311219 10.938346 31.556572) with tilt (-8.9311219 0 0)
  triclinic box = (0 0 0) to (8.9311219 10.938346 31.556572) with tilt (-8.9311219 0 0)
  triclinic box = (0 0 0) to (8.9311219 10.938346 31.556572) with tilt (-8.9311219 0 0)
echo none
run 0
Per MPI rank memory allocation (min/avg/max) = 3.33 | 3.33 | 3.33 Mbytes
    PotEng          Pxx           E_mol          E_coul    
-663.78798     -1698.7922      0              0            
Loop time of 8.34e-07 on 1 procs for 0 steps with 80 atoms

119.9% CPU use with 1 MPI tasks x no OpenMP threads

MPI task timing breakdown:
Section |  min time  |  avg time  |  max time  |%varavg| %total
---------------------------------------------------------------
Pair    | 0          | 0          | 0          |   0.0 |  0.00
Neigh   | 0          | 0          | 0          |   0.0 |  0.00
Comm    | 0          | 0          | 0          |   0.0 |  0.00
Output  | 0          | 0          | 0          |   0.0 |  0.00
Modify  | 0          | 0          | 0          |   0.0 |  0.00
Other   |            | 8.34e-07   |            |       |100.00

Nlocal:             80 ave          80 max          80 min
Histogram: 1 0 0 0 0 0 0 0 0 0
Nghost:            587 ave         587 max         587 min
Histogram: 1 0 0 0 0 0 0 0 0 0
Neighs:           4272 ave        4272 max        4272 min
Histogram: 1 0 0 0 0 0 0 0 0 0

Total # of neighbors = 4272
Ave neighs/atom = 53.4
Neighbor list builds = 0
Dangerous builds = 0
set atom * x 0.0 y 0.0 z 0.0
Setting atom values ...
  80 settings made for x
  80 settings made for y
  80 settings made for z
change_box all     x final 0 8.932552894851352 y final 0 10.940098346403268 z final 0 31.561628125115682      xy final -8.932552894851353 xz final 0.0 yz final 0.0 units box
Changing box ...
  triclinic box = (0 0 0) to (8.9325529 10.938346 31.556572) with tilt (-8.9311219 0 0)
  triclinic box = (0 0 0) to (8.9325529 10.940098 31.556572) with tilt (-8.9311219 0 0)
  triclinic box = (0 0 0) to (8.9325529 10.940098 31.561628) with tilt (-8.9311219 0 0)
  triclinic box = (0 0 0) to (8.9325529 10.940098 31.561628) with tilt (-8.9325529 0 0)
  triclinic box = (0 0 0) to (8.9325529 10.940098 31.561628) with tilt (-8.9325529 0 0)
  triclinic box = (0 0 0) to (8.9325529 10.940098 31.561628) with tilt (-8.9325529 0 0)
echo none
run 0
Per MPI rank memory allocation (min/avg/max) = 3.33 | 3.33 | 3.33 Mbytes
    PotEng          Pxx           E_mol          E_coul    
-663.78971     -1952.9033      0              0            
Loop time of 9.58e-07 on 1 procs for 0 steps with 80 atoms

0.0% CPU use with 1 MPI tasks x no OpenMP threads

MPI task timing breakdown:
Section |  min time  |  avg time  |  max time  |%varavg| %total
---------------------------------------------------------------
Pair    | 0          | 0          | 0          |   0.0 |  0.00
Neigh   | 0          | 0          | 0          |   0.0 |  0.00
Comm    | 0          | 0          | 0          |   0.0 |  0.00
Output  | 0          | 0          | 0          |   0.0 |  0.00
Modify  | 0          | 0          | 0          |   0.0 |  0.00
Other   |            | 9.58e-07   |            |       |100.00

Nlocal:             80 ave          80 max          80 min
Histogram: 1 0 0 0 0 0 0 0 0 0
Nghost:            587 ave         587 max         587 min
Histogram: 1 0 0 0 0 0 0 0 0 0
Neighs:           4272 ave        4272 max        4272 min
Histogram: 1 0 0 0 0 0 0 0 0 0

Total # of neighbors = 4272
Ave neighs/atom = 53.4
Neighbor list builds = 0
Dangerous builds = 0
set atom * x 0.0 y 0.0 z 0.0
Setting atom values ...
  80 settings made for x
  80 settings made for y
  80 settings made for z
change_box all     x final 0 8.932552894851352 y final 0 10.940098346403268 z final 0 31.561628125115682      xy final -8.932552894851353 xz final 0.0 yz final 0.0 units box
Changing box ...
  triclinic box = (0 0 0) to (8.9325529 10.940098 31.561628) with tilt (-8.9325529 0 0)
  triclinic box = (0 0 0) to (8.9325529 10.940098 31.561628) with tilt (-8.9325529 0 0)
  triclinic box = (0 0 0) to (8.9325529 10.940098 31.561628) with tilt (-8.9325529 0 0)
  triclinic box = (0 0 0) to (8.9325529 10.940098 31.561628) with tilt (-8.9325529 0 0)
  triclinic box = (0 0 0) to (8.9325529 10.940098 31.561628) with tilt (-8.9325529 0 0)
  triclinic box = (0 0 0) to (8.9325529 10.940098 31.561628) with tilt (-8.9325529 0 0)
echo none
run 0
Per MPI rank memory allocation (min/avg/max) = 3.33 | 3.33 | 3.33 Mbytes
    PotEng          Pxx           E_mol          E_coul    
-663.78971     -1952.9033      0              0            
Loop time of 1.166e-06 on 1 procs for 0 steps with 80 atoms

171.5% CPU use with 1 MPI tasks x no OpenMP threads

MPI task timing breakdown:
Section |  min time  |  avg time  |  max time  |%varavg| %total
---------------------------------------------------------------
Pair    | 0          | 0          | 0          |   0.0 |  0.00
Neigh   | 0          | 0          | 0          |   0.0 |  0.00
Comm    | 0          | 0          | 0          |   0.0 |  0.00
Output  | 0          | 0          | 0          |   0.0 |  0.00
Modify  | 0          | 0          | 0          |   0.0 |  0.00
Other   |            | 1.166e-06  |            |       |100.00

Nlocal:             80 ave          80 max          80 min
Histogram: 1 0 0 0 0 0 0 0 0 0
Nghost:            587 ave         587 max         587 min
Histogram: 1 0 0 0 0 0 0 0 0 0
Neighs:           4272 ave        4272 max        4272 min
Histogram: 1 0 0 0 0 0 0 0 0 0

Total # of neighbors = 4272
Ave neighs/atom = 53.4
Neighbor list builds = 0
Dangerous builds = 0
set atom * x 0.0 y 0.0 z 0.0
Setting atom values ...
  80 settings made for x
  80 settings made for y
  80 settings made for z
change_box all     x final 0 8.93368816293828 y final 0 10.941488760170387 z final 0 31.565639398220213      xy final -8.933688162938282 xz final 0.0 yz final 0.0 units box
Changing box ...
  triclinic box = (0 0 0) to (8.9336882 10.940098 31.561628) with tilt (-8.9325529 0 0)
  triclinic box = (0 0 0) to (8.9336882 10.941489 31.561628) with tilt (-8.9325529 0 0)
  triclinic box = (0 0 0) to (8.9336882 10.941489 31.565639) with tilt (-8.9325529 0 0)
  triclinic box = (0 0 0) to (8.9336882 10.941489 31.565639) with tilt (-8.9336882 0 0)
  triclinic box = (0 0 0) to (8.9336882 10.941489 31.565639) with tilt (-8.9336882 0 0)
  triclinic box = (0 0 0) to (8.9336882 10.941489 31.565639) with tilt (-8.9336882 0 0)
echo none
run 0
Per MPI rank memory allocation (min/avg/max) = 3.33 | 3.33 | 3.33 Mbytes
    PotEng          Pxx           E_mol          E_coul    
-663.7939      -2132.7879      0              0            
Loop time of 7.92e-07 on 1 procs for 0 steps with 80 atoms

252.5% CPU use with 1 MPI tasks x no OpenMP threads

MPI task timing breakdown:
Section |  min time  |  avg time  |  max time  |%varavg| %total
---------------------------------------------------------------
Pair    | 0          | 0          | 0          |   0.0 |  0.00
Neigh   | 0          | 0          | 0          |   0.0 |  0.00
Comm    | 0          | 0          | 0          |   0.0 |  0.00
Output  | 0          | 0          | 0          |   0.0 |  0.00
Modify  | 0          | 0          | 0          |   0.0 |  0.00
Other   |            | 7.92e-07   |            |       |100.00

Nlocal:             80 ave          80 max          80 min
Histogram: 1 0 0 0 0 0 0 0 0 0
Nghost:            587 ave         587 max         587 min
Histogram: 1 0 0 0 0 0 0 0 0 0
Neighs:           4272 ave        4272 max        4272 min
Histogram: 1 0 0 0 0 0 0 0 0 0

Total # of neighbors = 4272
Ave neighs/atom = 53.4
Neighbor list builds = 0
Dangerous builds = 0
set atom * x 0.0 y 0.0 z 0.0
Setting atom values ...
  80 settings made for x
  80 settings made for y
  80 settings made for z
change_box all     x final 0 8.93368816293828 y final 0 10.941488760170387 z final 0 31.565639398220213      xy final -8.933688162938282 xz final 0.0 yz final 0.0 units box
Changing box ...
  triclinic box = (0 0 0) to (8.9336882 10.941489 31.565639) with tilt (-8.9336882 0 0)
  triclinic box = (0 0 0) to (8.9336882 10.941489 31.565639) with tilt (-8.9336882 0 0)
  triclinic box = (0 0 0) to (8.9336882 10.941489 31.565639) with tilt (-8.9336882 0 0)
  triclinic box = (0 0 0) to (8.9336882 10.941489 31.565639) with tilt (-8.9336882 0 0)
  triclinic box = (0 0 0) to (8.9336882 10.941489 31.565639) with tilt (-8.9336882 0 0)
  triclinic box = (0 0 0) to (8.9336882 10.941489 31.565639) with tilt (-8.9336882 0 0)
echo none
run 0
Per MPI rank memory allocation (min/avg/max) = 3.33 | 3.33 | 3.33 Mbytes
    PotEng          Pxx           E_mol          E_coul    
-663.7939      -2132.7879      0              0            
Loop time of 8.34e-07 on 1 procs for 0 steps with 80 atoms

0.0% CPU use with 1 MPI tasks x no OpenMP threads

MPI task timing breakdown:
Section |  min time  |  avg time  |  max time  |%varavg| %total
---------------------------------------------------------------
Pair    | 0          | 0          | 0          |   0.0 |  0.00
Neigh   | 0          | 0          | 0          |   0.0 |  0.00
Comm    | 0          | 0          | 0          |   0.0 |  0.00
Output  | 0          | 0          | 0          |   0.0 |  0.00
Modify  | 0          | 0          | 0          |   0.0 |  0.00
Other   |            | 8.34e-07   |            |       |100.00

Nlocal:             80 ave          80 max          80 min
Histogram: 1 0 0 0 0 0 0 0 0 0
Nghost:            587 ave         587 max         587 min
Histogram: 1 0 0 0 0 0 0 0 0 0
Neighs:           4272 ave        4272 max        4272 min
Histogram: 1 0 0 0 0 0 0 0 0 0

Total # of neighbors = 4272
Ave neighs/atom = 53.4
Neighbor list builds = 0
Dangerous builds = 0
set atom * x 0.0 y 0.0 z 0.0
Setting atom values ...
  80 settings made for x
  80 settings made for y
  80 settings made for z
change_box all     x final 0 8.935377463654863 y final 0 10.943557722559259 z final 0 31.571608249637702      xy final -8.935377463654865 xz final 0.0 yz final 0.0 units box
Changing box ...
  triclinic box = (0 0 0) to (8.9353775 10.941489 31.565639) with tilt (-8.9336882 0 0)
  triclinic box = (0 0 0) to (8.9353775 10.943558 31.565639) with tilt (-8.9336882 0 0)
  triclinic box = (0 0 0) to (8.9353775 10.943558 31.571608) with tilt (-8.9336882 0 0)
  triclinic box = (0 0 0) to (8.9353775 10.943558 31.571608) with tilt (-8.9353775 0 0)
  triclinic box = (0 0 0) to (8.9353775 10.943558 31.571608) with tilt (-8.9353775 0 0)
  triclinic box = (0 0 0) to (8.9353775 10.943558 31.571608) with tilt (-8.9353775 0 0)
echo none
run 0
Per MPI rank memory allocation (min/avg/max) = 3.33 | 3.33 | 3.33 Mbytes
    PotEng          Pxx           E_mol          E_coul    
-663.79688     -2303.2048      0              0            
Loop time of 1.792e-06 on 1 procs for 0 steps with 80 atoms

167.4% CPU use with 1 MPI tasks x no OpenMP threads

MPI task timing breakdown:
Section |  min time  |  avg time  |  max time  |%varavg| %total
---------------------------------------------------------------
Pair    | 0          | 0          | 0          |   0.0 |  0.00
Neigh   | 0          | 0          | 0          |   0.0 |  0.00
Comm    | 0          | 0          | 0          |   0.0 |  0.00
Output  | 0          | 0          | 0          |   0.0 |  0.00
Modify  | 0          | 0          | 0          |   0.0 |  0.00
Other   |            | 1.792e-06  |            |       |100.00

Nlocal:             80 ave          80 max          80 min
Histogram: 1 0 0 0 0 0 0 0 0 0
Nghost:            587 ave         587 max         587 min
Histogram: 1 0 0 0 0 0 0 0 0 0
Neighs:           4272 ave        4272 max        4272 min
Histogram: 1 0 0 0 0 0 0 0 0 0

Total # of neighbors = 4272
Ave neighs/atom = 53.4
Neighbor list builds = 0
Dangerous builds = 0
set atom * x 0.0 y 0.0 z 0.0
Setting atom values ...
  80 settings made for x
  80 settings made for y
  80 settings made for z
change_box all     x final 0 8.935377463654863 y final 0 10.943557722559259 z final 0 31.571608249637702      xy final -8.935377463654865 xz final 0.0 yz final 0.0 units box
Changing box ...
  triclinic box = (0 0 0) to (8.9353775 10.943558 31.571608) with tilt (-8.9353775 0 0)
  triclinic box = (0 0 0) to (8.9353775 10.943558 31.571608) with tilt (-8.9353775 0 0)
  triclinic box = (0 0 0) to (8.9353775 10.943558 31.571608) with tilt (-8.9353775 0 0)
  triclinic box = (0 0 0) to (8.9353775 10.943558 31.571608) with tilt (-8.9353775 0 0)
  triclinic box = (0 0 0) to (8.9353775 10.943558 31.571608) with tilt (-8.9353775 0 0)
  triclinic box = (0 0 0) to (8.9353775 10.943558 31.571608) with tilt (-8.9353775 0 0)
echo none
run 0
Per MPI rank memory allocation (min/avg/max) = 3.33 | 3.33 | 3.33 Mbytes
    PotEng          Pxx           E_mol          E_coul    
-663.79688     -2303.2048      0              0            
Loop time of 1e-06 on 1 procs for 0 steps with 80 atoms

400.0% CPU use with 1 MPI tasks x no OpenMP threads

MPI task timing breakdown:
Section |  min time  |  avg time  |  max time  |%varavg| %total
---------------------------------------------------------------
Pair    | 0          | 0          | 0          |   0.0 |  0.00
Neigh   | 0          | 0          | 0          |   0.0 |  0.00
Comm    | 0          | 0          | 0          |   0.0 |  0.00
Output  | 0          | 0          | 0          |   0.0 |  0.00
Modify  | 0          | 0          | 0          |   0.0 |  0.00
Other   |            | 1e-06      |            |       |100.00

Nlocal:             80 ave          80 max          80 min
Histogram: 1 0 0 0 0 0 0 0 0 0
Nghost:            587 ave         587 max         587 min
Histogram: 1 0 0 0 0 0 0 0 0 0
Neighs:           4272 ave        4272 max        4272 min
Histogram: 1 0 0 0 0 0 0 0 0 0

Total # of neighbors = 4272
Ave neighs/atom = 53.4
Neighbor list builds = 0
Dangerous builds = 0
set atom * x 0.0 y 0.0 z 0.0
Setting atom values ...
  80 settings made for x
  80 settings made for y
  80 settings made for z
change_box all     x final 0 8.935030158702777 y final 0 10.94313236260038 z final 0 31.570381107758685      xy final -8.935030158702778 xz final 0.0 yz final 0.0 units box
Changing box ...
  triclinic box = (0 0 0) to (8.9350302 10.943558 31.571608) with tilt (-8.9353775 0 0)
  triclinic box = (0 0 0) to (8.9350302 10.943132 31.571608) with tilt (-8.9353775 0 0)
  triclinic box = (0 0 0) to (8.9350302 10.943132 31.570381) with tilt (-8.9353775 0 0)
  triclinic box = (0 0 0) to (8.9350302 10.943132 31.570381) with tilt (-8.9350302 0 0)
  triclinic box = (0 0 0) to (8.9350302 10.943132 31.570381) with tilt (-8.9350302 0 0)
  triclinic box = (0 0 0) to (8.9350302 10.943132 31.570381) with tilt (-8.9350302 0 0)
echo none
run 0
Per MPI rank memory allocation (min/avg/max) = 3.33 | 3.33 | 3.33 Mbytes
    PotEng          Pxx           E_mol          E_coul    
-663.79705     -2229.0629      0              0            
Loop time of 1e-06 on 1 procs for 0 steps with 80 atoms

100.0% CPU use with 1 MPI tasks x no OpenMP threads

MPI task timing breakdown:
Section |  min time  |  avg time  |  max time  |%varavg| %total
---------------------------------------------------------------
Pair    | 0          | 0          | 0          |   0.0 |  0.00
Neigh   | 0          | 0          | 0          |   0.0 |  0.00
Comm    | 0          | 0          | 0          |   0.0 |  0.00
Output  | 0          | 0          | 0          |   0.0 |  0.00
Modify  | 0          | 0          | 0          |   0.0 |  0.00
Other   |            | 1e-06      |            |       |100.00

Nlocal:             80 ave          80 max          80 min
Histogram: 1 0 0 0 0 0 0 0 0 0
Nghost:            587 ave         587 max         587 min
Histogram: 1 0 0 0 0 0 0 0 0 0
Neighs:           4272 ave        4272 max        4272 min
Histogram: 1 0 0 0 0 0 0 0 0 0

Total # of neighbors = 4272
Ave neighs/atom = 53.4
Neighbor list builds = 0
Dangerous builds = 0
Total wall time: 0:00:09
