LAMMPS (23 Jun 2022 - Update 4)
units metal
atom_style atomic
atom_modify map array sort 0 0
boundary p p p
box tilt large
region cell prism    0 3.631 0 3.631 0 3.631     0.0 0.0 0.0     units box
create_box 1 cell
Created triclinic box = (0 0 0) to (3.631 3.631 3.631) with tilt (0 0 0)
  1 by 1 by 1 MPI processor grid
echo none
Created 4 atoms
  using lattice units in triclinic box = (0 0 0) to (3.631 3.631 3.631) with tilt (0 0 0)
  create_atoms CPU = 0.000 seconds
Setting atom values ...
  1 settings made for type
Setting atom values ...
  1 settings made for type
Setting atom values ...
  1 settings made for type
Setting atom values ...
  1 settings made for type
pair_style eam/alloy
pair_coeff * * potentials/Cu.eam.alloy Cu
Reading eam/alloy potential file potentials/Cu.eam.alloy with DATE: 2018-03-30
mass 1 63.545999983653153719842521240935
variable pxx equal pxx
variable pyy equal pyy
variable pzz equal pzz
variable pxy equal pxy
variable pxz equal pxz
variable pyz equal pyz
thermo_style custom pe pxx emol ecoul
variable fx atom fx
variable fy atom fy
variable fz atom fz
variable pe equal pe
neigh_modify delay 0 every 1 check yes
echo none
run 0
WARNING: No fixes with time integration, atoms won't move (src/src/verlet.cpp:60)
Neighbor list info ...
  update every 1 steps, delay 0 steps, check yes
  max neighbors/atom: 2000, page size: 100000
  master list distance cutoff = 7.715752
  ghost atom cutoff = 7.715752
  binsize = 3.857876, bins = 1 1 1
  1 neighbor lists, perpetual/occasional/extra = 1 0 0
  (1) pair eam/alloy, perpetual
      attributes: half, newton on
      pair build: half/bin/newton/tri
      stencil: half/bin/3d/tri
      bin: standard
Per MPI rank memory allocation (min/avg/max) = 3.245 | 3.245 | 3.245 Mbytes
    PotEng          Pxx           E_mol          E_coul    
-14.156391     -17751.076      0              0            
Loop time of 1.292e-06 on 1 procs for 0 steps with 4 atoms

77.4% CPU use with 1 MPI tasks x no OpenMP threads

MPI task timing breakdown:
Section |  min time  |  avg time  |  max time  |%varavg| %total
---------------------------------------------------------------
Pair    | 0          | 0          | 0          |   0.0 |  0.00
Neigh   | 0          | 0          | 0          |   0.0 |  0.00
Comm    | 0          | 0          | 0          |   0.0 |  0.00
Output  | 0          | 0          | 0          |   0.0 |  0.00
Modify  | 0          | 0          | 0          |   0.0 |  0.00
Other   |            | 1.292e-06  |            |       |100.00

Nlocal:              4 ave           4 max           4 min
Histogram: 1 0 0 0 0 0 0 0 0 0
Nghost:            662 ave         662 max         662 min
Histogram: 1 0 0 0 0 0 0 0 0 0
Neighs:            352 ave         352 max         352 min
Histogram: 1 0 0 0 0 0 0 0 0 0

Total # of neighbors = 352
Ave neighs/atom = 88
Neighbor list builds = 0
Dangerous builds = 0
set atom * x 0.0 y 0.0 z 0.0
Setting atom values ...
  4 settings made for x
  4 settings made for y
  4 settings made for z
change_box all     x final 0 3.443434489050725 y final 0 3.443434489050725 z final 0 3.443434489050725      xy final 0.0 xz final 0.0 yz final 0.0 units box
Changing box ...
  triclinic box = (0 0 0) to (3.4434345 3.631 3.631) with tilt (0 0 0)
  triclinic box = (0 0 0) to (3.4434345 3.4434345 3.631) with tilt (0 0 0)
  triclinic box = (0 0 0) to (3.4434345 3.4434345 3.4434345) with tilt (0 0 0)
  triclinic box = (0 0 0) to (3.4434345 3.4434345 3.4434345) with tilt (0 0 0)
  triclinic box = (0 0 0) to (3.4434345 3.4434345 3.4434345) with tilt (0 0 0)
  triclinic box = (0 0 0) to (3.4434345 3.4434345 3.4434345) with tilt (0 0 0)
echo none
run 0
WARNING: No fixes with time integration, atoms won't move (src/src/verlet.cpp:60)
Per MPI rank memory allocation (min/avg/max) = 3.245 | 3.245 | 3.245 Mbytes
    PotEng          Pxx           E_mol          E_coul    
-13.690664      275289.86      0              0            
Loop time of 8.75e-07 on 1 procs for 0 steps with 4 atoms

0.0% CPU use with 1 MPI tasks x no OpenMP threads

MPI task timing breakdown:
Section |  min time  |  avg time  |  max time  |%varavg| %total
---------------------------------------------------------------
Pair    | 0          | 0          | 0          |   0.0 |  0.00
Neigh   | 0          | 0          | 0          |   0.0 |  0.00
Comm    | 0          | 0          | 0          |   0.0 |  0.00
Output  | 0          | 0          | 0          |   0.0 |  0.00
Modify  | 0          | 0          | 0          |   0.0 |  0.00
Other   |            | 8.75e-07   |            |       |100.00

Nlocal:              4 ave           4 max           4 min
Histogram: 1 0 0 0 0 0 0 0 0 0
Nghost:            662 ave         662 max         662 min
Histogram: 1 0 0 0 0 0 0 0 0 0
Neighs:            400 ave         400 max         400 min
Histogram: 1 0 0 0 0 0 0 0 0 0

Total # of neighbors = 400
Ave neighs/atom = 100
Neighbor list builds = 0
Dangerous builds = 0
set atom * x 0.0 y 0.0 z 0.0
Setting atom values ...
  4 settings made for x
  4 settings made for y
  4 settings made for z
change_box all     x final 0 3.6148818759761285 y final 0 3.6148818759761285 z final 0 3.6148818759761285      xy final 0.0 xz final 0.0 yz final 0.0 units box
Changing box ...
  triclinic box = (0 0 0) to (3.6148819 3.4434345 3.4434345) with tilt (0 0 0)
  triclinic box = (0 0 0) to (3.6148819 3.6148819 3.4434345) with tilt (0 0 0)
  triclinic box = (0 0 0) to (3.6148819 3.6148819 3.6148819) with tilt (0 0 0)
  triclinic box = (0 0 0) to (3.6148819 3.6148819 3.6148819) with tilt (0 0 0)
  triclinic box = (0 0 0) to (3.6148819 3.6148819 3.6148819) with tilt (0 0 0)
  triclinic box = (0 0 0) to (3.6148819 3.6148819 3.6148819) with tilt (0 0 0)
echo none
run 0
WARNING: No fixes with time integration, atoms won't move (src/src/verlet.cpp:60)
Per MPI rank memory allocation (min/avg/max) = 3.245 | 3.245 | 3.245 Mbytes
    PotEng          Pxx           E_mol          E_coul    
-14.159979      89.665773      0              0            
Loop time of 7.92e-07 on 1 procs for 0 steps with 4 atoms

505.1% CPU use with 1 MPI tasks x no OpenMP threads

MPI task timing breakdown:
Section |  min time  |  avg time  |  max time  |%varavg| %total
---------------------------------------------------------------
Pair    | 0          | 0          | 0          |   0.0 |  0.00
Neigh   | 0          | 0          | 0          |   0.0 |  0.00
Comm    | 0          | 0          | 0          |   0.0 |  0.00
Output  | 0          | 0          | 0          |   0.0 |  0.00
Modify  | 0          | 0          | 0          |   0.0 |  0.00
Other   |            | 7.92e-07   |            |       |100.00

Nlocal:              4 ave           4 max           4 min
Histogram: 1 0 0 0 0 0 0 0 0 0
Nghost:            662 ave         662 max         662 min
Histogram: 1 0 0 0 0 0 0 0 0 0
Neighs:            352 ave         352 max         352 min
Histogram: 1 0 0 0 0 0 0 0 0 0

Total # of neighbors = 352
Ave neighs/atom = 88
Neighbor list builds = 0
Dangerous builds = 0
set atom * x 0.0 y 0.0 z 0.0
Setting atom values ...
  4 settings made for x
  4 settings made for y
  4 settings made for z
change_box all     x final 0 3.253393688378516 y final 0 3.253393688378516 z final 0 3.253393688378516      xy final 0.0 xz final 0.0 yz final 0.0 units box
Changing box ...
  triclinic box = (0 0 0) to (3.2533937 3.6148819 3.6148819) with tilt (0 0 0)
  triclinic box = (0 0 0) to (3.2533937 3.2533937 3.6148819) with tilt (0 0 0)
  triclinic box = (0 0 0) to (3.2533937 3.2533937 3.2533937) with tilt (0 0 0)
  triclinic box = (0 0 0) to (3.2533937 3.2533937 3.2533937) with tilt (0 0 0)
  triclinic box = (0 0 0) to (3.2533937 3.2533937 3.2533937) with tilt (0 0 0)
  triclinic box = (0 0 0) to (3.2533937 3.2533937 3.2533937) with tilt (0 0 0)
echo none
run 0
WARNING: No fixes with time integration, atoms won't move (src/src/verlet.cpp:60)
Per MPI rank memory allocation (min/avg/max) = 3.245 | 3.245 | 3.245 Mbytes
    PotEng          Pxx           E_mol          E_coul    
-11.556158      851681.59      0              0            
Loop time of 7.92e-07 on 1 procs for 0 steps with 4 atoms

252.5% CPU use with 1 MPI tasks x no OpenMP threads

MPI task timing breakdown:
Section |  min time  |  avg time  |  max time  |%varavg| %total
---------------------------------------------------------------
Pair    | 0          | 0          | 0          |   0.0 |  0.00
Neigh   | 0          | 0          | 0          |   0.0 |  0.00
Comm    | 0          | 0          | 0          |   0.0 |  0.00
Output  | 0          | 0          | 0          |   0.0 |  0.00
Modify  | 0          | 0          | 0          |   0.0 |  0.00
Other   |            | 7.92e-07   |            |       |100.00

Nlocal:              4 ave           4 max           4 min
Histogram: 1 0 0 0 0 0 0 0 0 0
Nghost:            662 ave         662 max         662 min
Histogram: 1 0 0 0 0 0 0 0 0 0
Neighs:            448 ave         448 max         448 min
Histogram: 1 0 0 0 0 0 0 0 0 0

Total # of neighbors = 448
Ave neighs/atom = 112
Neighbor list builds = 0
Dangerous builds = 0
set atom * x 0.0 y 0.0 z 0.0
Setting atom values ...
  4 settings made for x
  4 settings made for y
  4 settings made for z
change_box all     x final 0 3.289542507138277 y final 0 3.289542507138277 z final 0 3.289542507138277      xy final 0.0 xz final 0.0 yz final 0.0 units box
Changing box ...
  triclinic box = (0 0 0) to (3.2895425 3.2533937 3.2533937) with tilt (0 0 0)
  triclinic box = (0 0 0) to (3.2895425 3.2895425 3.2533937) with tilt (0 0 0)
  triclinic box = (0 0 0) to (3.2895425 3.2895425 3.2895425) with tilt (0 0 0)
  triclinic box = (0 0 0) to (3.2895425 3.2895425 3.2895425) with tilt (0 0 0)
  triclinic box = (0 0 0) to (3.2895425 3.2895425 3.2895425) with tilt (0 0 0)
  triclinic box = (0 0 0) to (3.2895425 3.2895425 3.2895425) with tilt (0 0 0)
echo none
run 0
WARNING: No fixes with time integration, atoms won't move (src/src/verlet.cpp:60)
Per MPI rank memory allocation (min/avg/max) = 3.245 | 3.245 | 3.245 Mbytes
    PotEng          Pxx           E_mol          E_coul    
-12.124409      719753         0              0            
Loop time of 8.75e-07 on 1 procs for 0 steps with 4 atoms

114.3% CPU use with 1 MPI tasks x no OpenMP threads

MPI task timing breakdown:
Section |  min time  |  avg time  |  max time  |%varavg| %total
---------------------------------------------------------------
Pair    | 0          | 0          | 0          |   0.0 |  0.00
Neigh   | 0          | 0          | 0          |   0.0 |  0.00
Comm    | 0          | 0          | 0          |   0.0 |  0.00
Output  | 0          | 0          | 0          |   0.0 |  0.00
Modify  | 0          | 0          | 0          |   0.0 |  0.00
Other   |            | 8.75e-07   |            |       |100.00

Nlocal:              4 ave           4 max           4 min
Histogram: 1 0 0 0 0 0 0 0 0 0
Nghost:            662 ave         662 max         662 min
Histogram: 1 0 0 0 0 0 0 0 0 0
Neighs:            448 ave         448 max         448 min
Histogram: 1 0 0 0 0 0 0 0 0 0

Total # of neighbors = 448
Ave neighs/atom = 112
Neighbor list builds = 0
Dangerous builds = 0
set atom * x 0.0 y 0.0 z 0.0
Setting atom values ...
  4 settings made for x
  4 settings made for y
  4 settings made for z
change_box all     x final 0 3.3256913258980383 y final 0 3.3256913258980383 z final 0 3.3256913258980383      xy final 0.0 xz final 0.0 yz final 0.0 units box
Changing box ...
  triclinic box = (0 0 0) to (3.3256913 3.2895425 3.2895425) with tilt (0 0 0)
  triclinic box = (0 0 0) to (3.3256913 3.3256913 3.2895425) with tilt (0 0 0)
  triclinic box = (0 0 0) to (3.3256913 3.3256913 3.3256913) with tilt (0 0 0)
  triclinic box = (0 0 0) to (3.3256913 3.3256913 3.3256913) with tilt (0 0 0)
  triclinic box = (0 0 0) to (3.3256913 3.3256913 3.3256913) with tilt (0 0 0)
  triclinic box = (0 0 0) to (3.3256913 3.3256913 3.3256913) with tilt (0 0 0)
echo none
run 0
WARNING: No fixes with time integration, atoms won't move (src/src/verlet.cpp:60)
Per MPI rank memory allocation (min/avg/max) = 3.245 | 3.245 | 3.245 Mbytes
    PotEng          Pxx           E_mol          E_coul    
-12.612012      599407.45      0              0            
Loop time of 8.33e-07 on 1 procs for 0 steps with 4 atoms

0.0% CPU use with 1 MPI tasks x no OpenMP threads

MPI task timing breakdown:
Section |  min time  |  avg time  |  max time  |%varavg| %total
---------------------------------------------------------------
Pair    | 0          | 0          | 0          |   0.0 |  0.00
Neigh   | 0          | 0          | 0          |   0.0 |  0.00
Comm    | 0          | 0          | 0          |   0.0 |  0.00
Output  | 0          | 0          | 0          |   0.0 |  0.00
Modify  | 0          | 0          | 0          |   0.0 |  0.00
Other   |            | 8.33e-07   |            |       |100.00

Nlocal:              4 ave           4 max           4 min
Histogram: 1 0 0 0 0 0 0 0 0 0
Nghost:            662 ave         662 max         662 min
Histogram: 1 0 0 0 0 0 0 0 0 0
Neighs:            400 ave         400 max         400 min
Histogram: 1 0 0 0 0 0 0 0 0 0

Total # of neighbors = 400
Ave neighs/atom = 100
Neighbor list builds = 0
Dangerous builds = 0
set atom * x 0.0 y 0.0 z 0.0
Setting atom values ...
  4 settings made for x
  4 settings made for y
  4 settings made for z
change_box all     x final 0 3.3618401446578 y final 0 3.3618401446578 z final 0 3.3618401446578      xy final 0.0 xz final 0.0 yz final 0.0 units box
Changing box ...
  triclinic box = (0 0 0) to (3.3618401 3.3256913 3.3256913) with tilt (0 0 0)
  triclinic box = (0 0 0) to (3.3618401 3.3618401 3.3256913) with tilt (0 0 0)
  triclinic box = (0 0 0) to (3.3618401 3.3618401 3.3618401) with tilt (0 0 0)
  triclinic box = (0 0 0) to (3.3618401 3.3618401 3.3618401) with tilt (0 0 0)
  triclinic box = (0 0 0) to (3.3618401 3.3618401 3.3618401) with tilt (0 0 0)
  triclinic box = (0 0 0) to (3.3618401 3.3618401 3.3618401) with tilt (0 0 0)
echo none
run 0
WARNING: No fixes with time integration, atoms won't move (src/src/verlet.cpp:60)
Per MPI rank memory allocation (min/avg/max) = 3.245 | 3.245 | 3.245 Mbytes
    PotEng          Pxx           E_mol          E_coul    
-13.023163      489157.95      0              0            
Loop time of 8.33e-07 on 1 procs for 0 steps with 4 atoms

120.0% CPU use with 1 MPI tasks x no OpenMP threads

MPI task timing breakdown:
Section |  min time  |  avg time  |  max time  |%varavg| %total
---------------------------------------------------------------
Pair    | 0          | 0          | 0          |   0.0 |  0.00
Neigh   | 0          | 0          | 0          |   0.0 |  0.00
Comm    | 0          | 0          | 0          |   0.0 |  0.00
Output  | 0          | 0          | 0          |   0.0 |  0.00
Modify  | 0          | 0          | 0          |   0.0 |  0.00
Other   |            | 8.33e-07   |            |       |100.00

Nlocal:              4 ave           4 max           4 min
Histogram: 1 0 0 0 0 0 0 0 0 0
Nghost:            662 ave         662 max         662 min
Histogram: 1 0 0 0 0 0 0 0 0 0
Neighs:            400 ave         400 max         400 min
Histogram: 1 0 0 0 0 0 0 0 0 0

Total # of neighbors = 400
Ave neighs/atom = 100
Neighbor list builds = 0
Dangerous builds = 0
set atom * x 0.0 y 0.0 z 0.0
Setting atom values ...
  4 settings made for x
  4 settings made for y
  4 settings made for z
change_box all     x final 0 3.397988963417561 y final 0 3.397988963417561 z final 0 3.397988963417561      xy final 0.0 xz final 0.0 yz final 0.0 units box
Changing box ...
  triclinic box = (0 0 0) to (3.397989 3.3618401 3.3618401) with tilt (0 0 0)
  triclinic box = (0 0 0) to (3.397989 3.397989 3.3618401) with tilt (0 0 0)
  triclinic box = (0 0 0) to (3.397989 3.397989 3.397989) with tilt (0 0 0)
  triclinic box = (0 0 0) to (3.397989 3.397989 3.397989) with tilt (0 0 0)
  triclinic box = (0 0 0) to (3.397989 3.397989 3.397989) with tilt (0 0 0)
  triclinic box = (0 0 0) to (3.397989 3.397989 3.397989) with tilt (0 0 0)
echo none
run 0
WARNING: No fixes with time integration, atoms won't move (src/src/verlet.cpp:60)
Per MPI rank memory allocation (min/avg/max) = 3.245 | 3.245 | 3.245 Mbytes
    PotEng          Pxx           E_mol          E_coul    
-13.36172       388445.24      0              0            
Loop time of 8.75e-07 on 1 procs for 0 steps with 4 atoms

228.6% CPU use with 1 MPI tasks x no OpenMP threads

MPI task timing breakdown:
Section |  min time  |  avg time  |  max time  |%varavg| %total
---------------------------------------------------------------
Pair    | 0          | 0          | 0          |   0.0 |  0.00
Neigh   | 0          | 0          | 0          |   0.0 |  0.00
Comm    | 0          | 0          | 0          |   0.0 |  0.00
Output  | 0          | 0          | 0          |   0.0 |  0.00
Modify  | 0          | 0          | 0          |   0.0 |  0.00
Other   |            | 8.75e-07   |            |       |100.00

Nlocal:              4 ave           4 max           4 min
Histogram: 1 0 0 0 0 0 0 0 0 0
Nghost:            662 ave         662 max         662 min
Histogram: 1 0 0 0 0 0 0 0 0 0
Neighs:            400 ave         400 max         400 min
Histogram: 1 0 0 0 0 0 0 0 0 0

Total # of neighbors = 400
Ave neighs/atom = 100
Neighbor list builds = 0
Dangerous builds = 0
set atom * x 0.0 y 0.0 z 0.0
Setting atom values ...
  4 settings made for x
  4 settings made for y
  4 settings made for z
change_box all     x final 0 3.4341377821773222 y final 0 3.4341377821773222 z final 0 3.4341377821773222      xy final 0.0 xz final 0.0 yz final 0.0 units box
Changing box ...
  triclinic box = (0 0 0) to (3.4341378 3.397989 3.397989) with tilt (0 0 0)
  triclinic box = (0 0 0) to (3.4341378 3.4341378 3.397989) with tilt (0 0 0)
  triclinic box = (0 0 0) to (3.4341378 3.4341378 3.4341378) with tilt (0 0 0)
  triclinic box = (0 0 0) to (3.4341378 3.4341378 3.4341378) with tilt (0 0 0)
  triclinic box = (0 0 0) to (3.4341378 3.4341378 3.4341378) with tilt (0 0 0)
  triclinic box = (0 0 0) to (3.4341378 3.4341378 3.4341378) with tilt (0 0 0)
echo none
run 0
WARNING: No fixes with time integration, atoms won't move (src/src/verlet.cpp:60)
Per MPI rank memory allocation (min/avg/max) = 3.245 | 3.245 | 3.245 Mbytes
    PotEng          Pxx           E_mol          E_coul    
-13.631754      297200.8       0              0            
Loop time of 9.58e-07 on 1 procs for 0 steps with 4 atoms

208.8% CPU use with 1 MPI tasks x no OpenMP threads

MPI task timing breakdown:
Section |  min time  |  avg time  |  max time  |%varavg| %total
---------------------------------------------------------------
Pair    | 0          | 0          | 0          |   0.0 |  0.00
Neigh   | 0          | 0          | 0          |   0.0 |  0.00
Comm    | 0          | 0          | 0          |   0.0 |  0.00
Output  | 0          | 0          | 0          |   0.0 |  0.00
Modify  | 0          | 0          | 0          |   0.0 |  0.00
Other   |            | 9.58e-07   |            |       |100.00

Nlocal:              4 ave           4 max           4 min
Histogram: 1 0 0 0 0 0 0 0 0 0
Nghost:            662 ave         662 max         662 min
Histogram: 1 0 0 0 0 0 0 0 0 0
Neighs:            400 ave         400 max         400 min
Histogram: 1 0 0 0 0 0 0 0 0 0

Total # of neighbors = 400
Ave neighs/atom = 100
Neighbor list builds = 0
Dangerous builds = 0
set atom * x 0.0 y 0.0 z 0.0
Setting atom values ...
  4 settings made for x
  4 settings made for y
  4 settings made for z
change_box all     x final 0 3.470286600937084 y final 0 3.470286600937084 z final 0 3.470286600937084      xy final 0.0 xz final 0.0 yz final 0.0 units box
Changing box ...
  triclinic box = (0 0 0) to (3.4702866 3.4341378 3.4341378) with tilt (0 0 0)
  triclinic box = (0 0 0) to (3.4702866 3.4702866 3.4341378) with tilt (0 0 0)
  triclinic box = (0 0 0) to (3.4702866 3.4702866 3.4702866) with tilt (0 0 0)
  triclinic box = (0 0 0) to (3.4702866 3.4702866 3.4702866) with tilt (0 0 0)
  triclinic box = (0 0 0) to (3.4702866 3.4702866 3.4702866) with tilt (0 0 0)
  triclinic box = (0 0 0) to (3.4702866 3.4702866 3.4702866) with tilt (0 0 0)
echo none
run 0
WARNING: No fixes with time integration, atoms won't move (src/src/verlet.cpp:60)
Per MPI rank memory allocation (min/avg/max) = 3.245 | 3.245 | 3.245 Mbytes
    PotEng          Pxx           E_mol          E_coul    
-13.837838      215682.65      0              0            
Loop time of 1.292e-06 on 1 procs for 0 steps with 4 atoms

154.8% CPU use with 1 MPI tasks x no OpenMP threads

MPI task timing breakdown:
Section |  min time  |  avg time  |  max time  |%varavg| %total
---------------------------------------------------------------
Pair    | 0          | 0          | 0          |   0.0 |  0.00
Neigh   | 0          | 0          | 0          |   0.0 |  0.00
Comm    | 0          | 0          | 0          |   0.0 |  0.00
Output  | 0          | 0          | 0          |   0.0 |  0.00
Modify  | 0          | 0          | 0          |   0.0 |  0.00
Other   |            | 1.292e-06  |            |       |100.00

Nlocal:              4 ave           4 max           4 min
Histogram: 1 0 0 0 0 0 0 0 0 0
Nghost:            662 ave         662 max         662 min
Histogram: 1 0 0 0 0 0 0 0 0 0
Neighs:            352 ave         352 max         352 min
Histogram: 1 0 0 0 0 0 0 0 0 0

Total # of neighbors = 352
Ave neighs/atom = 88
Neighbor list builds = 0
Dangerous builds = 0
set atom * x 0.0 y 0.0 z 0.0
Setting atom values ...
  4 settings made for x
  4 settings made for y
  4 settings made for z
change_box all     x final 0 3.506435419696845 y final 0 3.506435419696845 z final 0 3.506435419696845      xy final 0.0 xz final 0.0 yz final 0.0 units box
Changing box ...
  triclinic box = (0 0 0) to (3.5064354 3.4702866 3.4702866) with tilt (0 0 0)
  triclinic box = (0 0 0) to (3.5064354 3.5064354 3.4702866) with tilt (0 0 0)
  triclinic box = (0 0 0) to (3.5064354 3.5064354 3.5064354) with tilt (0 0 0)
  triclinic box = (0 0 0) to (3.5064354 3.5064354 3.5064354) with tilt (0 0 0)
  triclinic box = (0 0 0) to (3.5064354 3.5064354 3.5064354) with tilt (0 0 0)
  triclinic box = (0 0 0) to (3.5064354 3.5064354 3.5064354) with tilt (0 0 0)
echo none
run 0
WARNING: No fixes with time integration, atoms won't move (src/src/verlet.cpp:60)
Per MPI rank memory allocation (min/avg/max) = 3.245 | 3.245 | 3.245 Mbytes
    PotEng          Pxx           E_mol          E_coul    
-13.985321      144453.46      0              0            
Loop time of 7.92e-07 on 1 procs for 0 steps with 4 atoms

252.5% CPU use with 1 MPI tasks x no OpenMP threads

MPI task timing breakdown:
Section |  min time  |  avg time  |  max time  |%varavg| %total
---------------------------------------------------------------
Pair    | 0          | 0          | 0          |   0.0 |  0.00
Neigh   | 0          | 0          | 0          |   0.0 |  0.00
Comm    | 0          | 0          | 0          |   0.0 |  0.00
Output  | 0          | 0          | 0          |   0.0 |  0.00
Modify  | 0          | 0          | 0          |   0.0 |  0.00
Other   |            | 7.92e-07   |            |       |100.00

Nlocal:              4 ave           4 max           4 min
Histogram: 1 0 0 0 0 0 0 0 0 0
Nghost:            662 ave         662 max         662 min
Histogram: 1 0 0 0 0 0 0 0 0 0
Neighs:            352 ave         352 max         352 min
Histogram: 1 0 0 0 0 0 0 0 0 0

Total # of neighbors = 352
Ave neighs/atom = 88
Neighbor list builds = 0
Dangerous builds = 0
set atom * x 0.0 y 0.0 z 0.0
Setting atom values ...
  4 settings made for x
  4 settings made for y
  4 settings made for z
change_box all     x final 0 3.542584238456606 y final 0 3.542584238456606 z final 0 3.542584238456606      xy final 0.0 xz final 0.0 yz final 0.0 units box
Changing box ...
  triclinic box = (0 0 0) to (3.5425842 3.5064354 3.5064354) with tilt (0 0 0)
  triclinic box = (0 0 0) to (3.5425842 3.5425842 3.5064354) with tilt (0 0 0)
  triclinic box = (0 0 0) to (3.5425842 3.5425842 3.5425842) with tilt (0 0 0)
  triclinic box = (0 0 0) to (3.5425842 3.5425842 3.5425842) with tilt (0 0 0)
  triclinic box = (0 0 0) to (3.5425842 3.5425842 3.5425842) with tilt (0 0 0)
  triclinic box = (0 0 0) to (3.5425842 3.5425842 3.5425842) with tilt (0 0 0)
echo none
run 0
WARNING: No fixes with time integration, atoms won't move (src/src/verlet.cpp:60)
Per MPI rank memory allocation (min/avg/max) = 3.245 | 3.245 | 3.245 Mbytes
    PotEng          Pxx           E_mol          E_coul    
-14.083026      91595.106      0              0            
Loop time of 1.125e-06 on 1 procs for 0 steps with 4 atoms

88.9% CPU use with 1 MPI tasks x no OpenMP threads

MPI task timing breakdown:
Section |  min time  |  avg time  |  max time  |%varavg| %total
---------------------------------------------------------------
Pair    | 0          | 0          | 0          |   0.0 |  0.00
Neigh   | 0          | 0          | 0          |   0.0 |  0.00
Comm    | 0          | 0          | 0          |   0.0 |  0.00
Output  | 0          | 0          | 0          |   0.0 |  0.00
Modify  | 0          | 0          | 0          |   0.0 |  0.00
Other   |            | 1.125e-06  |            |       |100.00

Nlocal:              4 ave           4 max           4 min
Histogram: 1 0 0 0 0 0 0 0 0 0
Nghost:            662 ave         662 max         662 min
Histogram: 1 0 0 0 0 0 0 0 0 0
Neighs:            352 ave         352 max         352 min
Histogram: 1 0 0 0 0 0 0 0 0 0

Total # of neighbors = 352
Ave neighs/atom = 88
Neighbor list builds = 0
Dangerous builds = 0
set atom * x 0.0 y 0.0 z 0.0
Setting atom values ...
  4 settings made for x
  4 settings made for y
  4 settings made for z
change_box all     x final 0 3.578733057216368 y final 0 3.578733057216368 z final 0 3.578733057216368      xy final 0.0 xz final 0.0 yz final 0.0 units box
Changing box ...
  triclinic box = (0 0 0) to (3.5787331 3.5425842 3.5425842) with tilt (0 0 0)
  triclinic box = (0 0 0) to (3.5787331 3.5787331 3.5425842) with tilt (0 0 0)
  triclinic box = (0 0 0) to (3.5787331 3.5787331 3.5787331) with tilt (0 0 0)
  triclinic box = (0 0 0) to (3.5787331 3.5787331 3.5787331) with tilt (0 0 0)
  triclinic box = (0 0 0) to (3.5787331 3.5787331 3.5787331) with tilt (0 0 0)
  triclinic box = (0 0 0) to (3.5787331 3.5787331 3.5787331) with tilt (0 0 0)
echo none
run 0
WARNING: No fixes with time integration, atoms won't move (src/src/verlet.cpp:60)
Per MPI rank memory allocation (min/avg/max) = 3.245 | 3.245 | 3.245 Mbytes
    PotEng          Pxx           E_mol          E_coul    
-14.141049      44106.624      0              0            
Loop time of 1e-06 on 1 procs for 0 steps with 4 atoms

0.0% CPU use with 1 MPI tasks x no OpenMP threads

MPI task timing breakdown:
Section |  min time  |  avg time  |  max time  |%varavg| %total
---------------------------------------------------------------
Pair    | 0          | 0          | 0          |   0.0 |  0.00
Neigh   | 0          | 0          | 0          |   0.0 |  0.00
Comm    | 0          | 0          | 0          |   0.0 |  0.00
Output  | 0          | 0          | 0          |   0.0 |  0.00
Modify  | 0          | 0          | 0          |   0.0 |  0.00
Other   |            | 1e-06      |            |       |100.00

Nlocal:              4 ave           4 max           4 min
Histogram: 1 0 0 0 0 0 0 0 0 0
Nghost:            662 ave         662 max         662 min
Histogram: 1 0 0 0 0 0 0 0 0 0
Neighs:            352 ave         352 max         352 min
Histogram: 1 0 0 0 0 0 0 0 0 0

Total # of neighbors = 352
Ave neighs/atom = 88
Neighbor list builds = 0
Dangerous builds = 0
set atom * x 0.0 y 0.0 z 0.0
Setting atom values ...
  4 settings made for x
  4 settings made for y
  4 settings made for z
change_box all     x final 0 3.6148818759761285 y final 0 3.6148818759761285 z final 0 3.6148818759761285      xy final 0.0 xz final 0.0 yz final 0.0 units box
Changing box ...
  triclinic box = (0 0 0) to (3.6148819 3.5787331 3.5787331) with tilt (0 0 0)
  triclinic box = (0 0 0) to (3.6148819 3.6148819 3.5787331) with tilt (0 0 0)
  triclinic box = (0 0 0) to (3.6148819 3.6148819 3.6148819) with tilt (0 0 0)
  triclinic box = (0 0 0) to (3.6148819 3.6148819 3.6148819) with tilt (0 0 0)
  triclinic box = (0 0 0) to (3.6148819 3.6148819 3.6148819) with tilt (0 0 0)
  triclinic box = (0 0 0) to (3.6148819 3.6148819 3.6148819) with tilt (0 0 0)
echo none
run 0
WARNING: No fixes with time integration, atoms won't move (src/src/verlet.cpp:60)
Per MPI rank memory allocation (min/avg/max) = 3.245 | 3.245 | 3.245 Mbytes
    PotEng          Pxx           E_mol          E_coul    
-14.159979      89.665773      0              0            
Loop time of 8.75e-07 on 1 procs for 0 steps with 4 atoms

0.0% CPU use with 1 MPI tasks x no OpenMP threads

MPI task timing breakdown:
Section |  min time  |  avg time  |  max time  |%varavg| %total
---------------------------------------------------------------
Pair    | 0          | 0          | 0          |   0.0 |  0.00
Neigh   | 0          | 0          | 0          |   0.0 |  0.00
Comm    | 0          | 0          | 0          |   0.0 |  0.00
Output  | 0          | 0          | 0          |   0.0 |  0.00
Modify  | 0          | 0          | 0          |   0.0 |  0.00
Other   |            | 8.75e-07   |            |       |100.00

Nlocal:              4 ave           4 max           4 min
Histogram: 1 0 0 0 0 0 0 0 0 0
Nghost:            662 ave         662 max         662 min
Histogram: 1 0 0 0 0 0 0 0 0 0
Neighs:            352 ave         352 max         352 min
Histogram: 1 0 0 0 0 0 0 0 0 0

Total # of neighbors = 352
Ave neighs/atom = 88
Neighbor list builds = 0
Dangerous builds = 0
set atom * x 0.0 y 0.0 z 0.0
Setting atom values ...
  4 settings made for x
  4 settings made for y
  4 settings made for z
change_box all     x final 0 3.6510306947358906 y final 0 3.6510306947358906 z final 0 3.6510306947358906      xy final 0.0 xz final 0.0 yz final 0.0 units box
Changing box ...
  triclinic box = (0 0 0) to (3.6510307 3.6148819 3.6148819) with tilt (0 0 0)
  triclinic box = (0 0 0) to (3.6510307 3.6510307 3.6148819) with tilt (0 0 0)
  triclinic box = (0 0 0) to (3.6510307 3.6510307 3.6510307) with tilt (0 0 0)
  triclinic box = (0 0 0) to (3.6510307 3.6510307 3.6510307) with tilt (0 0 0)
  triclinic box = (0 0 0) to (3.6510307 3.6510307 3.6510307) with tilt (0 0 0)
  triclinic box = (0 0 0) to (3.6510307 3.6510307 3.6510307) with tilt (0 0 0)
echo none
run 0
WARNING: No fixes with time integration, atoms won't move (src/src/verlet.cpp:60)
Per MPI rank memory allocation (min/avg/max) = 3.245 | 3.245 | 3.245 Mbytes
    PotEng          Pxx           E_mol          E_coul    
-14.142392     -38185.124      0              0            
Loop time of 9.58e-07 on 1 procs for 0 steps with 4 atoms

0.0% CPU use with 1 MPI tasks x no OpenMP threads

MPI task timing breakdown:
Section |  min time  |  avg time  |  max time  |%varavg| %total
---------------------------------------------------------------
Pair    | 0          | 0          | 0          |   0.0 |  0.00
Neigh   | 0          | 0          | 0          |   0.0 |  0.00
Comm    | 0          | 0          | 0          |   0.0 |  0.00
Output  | 0          | 0          | 0          |   0.0 |  0.00
Modify  | 0          | 0          | 0          |   0.0 |  0.00
Other   |            | 9.58e-07   |            |       |100.00

Nlocal:              4 ave           4 max           4 min
Histogram: 1 0 0 0 0 0 0 0 0 0
Nghost:            662 ave         662 max         662 min
Histogram: 1 0 0 0 0 0 0 0 0 0
Neighs:            280 ave         280 max         280 min
Histogram: 1 0 0 0 0 0 0 0 0 0

Total # of neighbors = 280
Ave neighs/atom = 70
Neighbor list builds = 0
Dangerous builds = 0
set atom * x 0.0 y 0.0 z 0.0
Setting atom values ...
  4 settings made for x
  4 settings made for y
  4 settings made for z
change_box all     x final 0 3.6871795134956513 y final 0 3.6871795134956513 z final 0 3.6871795134956513      xy final 0.0 xz final 0.0 yz final 0.0 units box
Changing box ...
  triclinic box = (0 0 0) to (3.6871795 3.6510307 3.6510307) with tilt (0 0 0)
  triclinic box = (0 0 0) to (3.6871795 3.6871795 3.6510307) with tilt (0 0 0)
  triclinic box = (0 0 0) to (3.6871795 3.6871795 3.6871795) with tilt (0 0 0)
  triclinic box = (0 0 0) to (3.6871795 3.6871795 3.6871795) with tilt (0 0 0)
  triclinic box = (0 0 0) to (3.6871795 3.6871795 3.6871795) with tilt (0 0 0)
  triclinic box = (0 0 0) to (3.6871795 3.6871795 3.6871795) with tilt (0 0 0)
echo none
run 0
WARNING: No fixes with time integration, atoms won't move (src/src/verlet.cpp:60)
Per MPI rank memory allocation (min/avg/max) = 3.245 | 3.245 | 3.245 Mbytes
    PotEng          Pxx           E_mol          E_coul    
-14.092556     -70036.376      0              0            
Loop time of 7.92e-07 on 1 procs for 0 steps with 4 atoms

0.0% CPU use with 1 MPI tasks x no OpenMP threads

MPI task timing breakdown:
Section |  min time  |  avg time  |  max time  |%varavg| %total
---------------------------------------------------------------
Pair    | 0          | 0          | 0          |   0.0 |  0.00
Neigh   | 0          | 0          | 0          |   0.0 |  0.00
Comm    | 0          | 0          | 0          |   0.0 |  0.00
Output  | 0          | 0          | 0          |   0.0 |  0.00
Modify  | 0          | 0          | 0          |   0.0 |  0.00
Other   |            | 7.92e-07   |            |       |100.00

Nlocal:              4 ave           4 max           4 min
Histogram: 1 0 0 0 0 0 0 0 0 0
Nghost:            662 ave         662 max         662 min
Histogram: 1 0 0 0 0 0 0 0 0 0
Neighs:            280 ave         280 max         280 min
Histogram: 1 0 0 0 0 0 0 0 0 0

Total # of neighbors = 280
Ave neighs/atom = 70
Neighbor list builds = 0
Dangerous builds = 0
set atom * x 0.0 y 0.0 z 0.0
Setting atom values ...
  4 settings made for x
  4 settings made for y
  4 settings made for z
change_box all     x final 0 3.7233283322554134 y final 0 3.7233283322554134 z final 0 3.7233283322554134      xy final 0.0 xz final 0.0 yz final 0.0 units box
Changing box ...
  triclinic box = (0 0 0) to (3.7233283 3.6871795 3.6871795) with tilt (0 0 0)
  triclinic box = (0 0 0) to (3.7233283 3.7233283 3.6871795) with tilt (0 0 0)
  triclinic box = (0 0 0) to (3.7233283 3.7233283 3.7233283) with tilt (0 0 0)
  triclinic box = (0 0 0) to (3.7233283 3.7233283 3.7233283) with tilt (0 0 0)
  triclinic box = (0 0 0) to (3.7233283 3.7233283 3.7233283) with tilt (0 0 0)
  triclinic box = (0 0 0) to (3.7233283 3.7233283 3.7233283) with tilt (0 0 0)
echo none
run 0
WARNING: No fixes with time integration, atoms won't move (src/src/verlet.cpp:60)
Per MPI rank memory allocation (min/avg/max) = 3.245 | 3.245 | 3.245 Mbytes
    PotEng          Pxx           E_mol          E_coul    
-14.014929     -96090.39       0              0            
Loop time of 9.58e-07 on 1 procs for 0 steps with 4 atoms

0.0% CPU use with 1 MPI tasks x no OpenMP threads

MPI task timing breakdown:
Section |  min time  |  avg time  |  max time  |%varavg| %total
---------------------------------------------------------------
Pair    | 0          | 0          | 0          |   0.0 |  0.00
Neigh   | 0          | 0          | 0          |   0.0 |  0.00
Comm    | 0          | 0          | 0          |   0.0 |  0.00
Output  | 0          | 0          | 0          |   0.0 |  0.00
Modify  | 0          | 0          | 0          |   0.0 |  0.00
Other   |            | 9.58e-07   |            |       |100.00

Nlocal:              4 ave           4 max           4 min
Histogram: 1 0 0 0 0 0 0 0 0 0
Nghost:            662 ave         662 max         662 min
Histogram: 1 0 0 0 0 0 0 0 0 0
Neighs:            280 ave         280 max         280 min
Histogram: 1 0 0 0 0 0 0 0 0 0

Total # of neighbors = 280
Ave neighs/atom = 70
Neighbor list builds = 0
Dangerous builds = 0
set atom * x 0.0 y 0.0 z 0.0
Setting atom values ...
  4 settings made for x
  4 settings made for y
  4 settings made for z
change_box all     x final 0 3.7594771510151737 y final 0 3.7594771510151737 z final 0 3.7594771510151737      xy final 0.0 xz final 0.0 yz final 0.0 units box
Changing box ...
  triclinic box = (0 0 0) to (3.7594772 3.7233283 3.7233283) with tilt (0 0 0)
  triclinic box = (0 0 0) to (3.7594772 3.7594772 3.7233283) with tilt (0 0 0)
  triclinic box = (0 0 0) to (3.7594772 3.7594772 3.7594772) with tilt (0 0 0)
  triclinic box = (0 0 0) to (3.7594772 3.7594772 3.7594772) with tilt (0 0 0)
  triclinic box = (0 0 0) to (3.7594772 3.7594772 3.7594772) with tilt (0 0 0)
  triclinic box = (0 0 0) to (3.7594772 3.7594772 3.7594772) with tilt (0 0 0)
echo none
run 0
WARNING: No fixes with time integration, atoms won't move (src/src/verlet.cpp:60)
Per MPI rank memory allocation (min/avg/max) = 3.245 | 3.245 | 3.245 Mbytes
    PotEng          Pxx           E_mol          E_coul    
-13.913442     -117253.11      0              0            
Loop time of 7.92e-07 on 1 procs for 0 steps with 4 atoms

126.3% CPU use with 1 MPI tasks x no OpenMP threads

MPI task timing breakdown:
Section |  min time  |  avg time  |  max time  |%varavg| %total
---------------------------------------------------------------
Pair    | 0          | 0          | 0          |   0.0 |  0.00
Neigh   | 0          | 0          | 0          |   0.0 |  0.00
Comm    | 0          | 0          | 0          |   0.0 |  0.00
Output  | 0          | 0          | 0          |   0.0 |  0.00
Modify  | 0          | 0          | 0          |   0.0 |  0.00
Other   |            | 7.92e-07   |            |       |100.00

Nlocal:              4 ave           4 max           4 min
Histogram: 1 0 0 0 0 0 0 0 0 0
Nghost:            662 ave         662 max         662 min
Histogram: 1 0 0 0 0 0 0 0 0 0
Neighs:            280 ave         280 max         280 min
Histogram: 1 0 0 0 0 0 0 0 0 0

Total # of neighbors = 280
Ave neighs/atom = 70
Neighbor list builds = 0
Dangerous builds = 0
set atom * x 0.0 y 0.0 z 0.0
Setting atom values ...
  4 settings made for x
  4 settings made for y
  4 settings made for z
change_box all     x final 0 3.7956259697749357 y final 0 3.7956259697749357 z final 0 3.7956259697749357      xy final 0.0 xz final 0.0 yz final 0.0 units box
Changing box ...
  triclinic box = (0 0 0) to (3.795626 3.7594772 3.7594772) with tilt (0 0 0)
  triclinic box = (0 0 0) to (3.795626 3.795626 3.7594772) with tilt (0 0 0)
  triclinic box = (0 0 0) to (3.795626 3.795626 3.795626) with tilt (0 0 0)
  triclinic box = (0 0 0) to (3.795626 3.795626 3.795626) with tilt (0 0 0)
  triclinic box = (0 0 0) to (3.795626 3.795626 3.795626) with tilt (0 0 0)
  triclinic box = (0 0 0) to (3.795626 3.795626 3.795626) with tilt (0 0 0)
echo none
run 0
WARNING: No fixes with time integration, atoms won't move (src/src/verlet.cpp:60)
Per MPI rank memory allocation (min/avg/max) = 3.245 | 3.245 | 3.245 Mbytes
    PotEng          Pxx           E_mol          E_coul    
-13.791589     -134498.99      0              0            
Loop time of 8.33e-07 on 1 procs for 0 steps with 4 atoms

120.0% CPU use with 1 MPI tasks x no OpenMP threads

MPI task timing breakdown:
Section |  min time  |  avg time  |  max time  |%varavg| %total
---------------------------------------------------------------
Pair    | 0          | 0          | 0          |   0.0 |  0.00
Neigh   | 0          | 0          | 0          |   0.0 |  0.00
Comm    | 0          | 0          | 0          |   0.0 |  0.00
Output  | 0          | 0          | 0          |   0.0 |  0.00
Modify  | 0          | 0          | 0          |   0.0 |  0.00
Other   |            | 8.33e-07   |            |       |100.00

Nlocal:              4 ave           4 max           4 min
Histogram: 1 0 0 0 0 0 0 0 0 0
Nghost:            662 ave         662 max         662 min
Histogram: 1 0 0 0 0 0 0 0 0 0
Neighs:            280 ave         280 max         280 min
Histogram: 1 0 0 0 0 0 0 0 0 0

Total # of neighbors = 280
Ave neighs/atom = 70
Neighbor list builds = 0
Dangerous builds = 0
set atom * x 0.0 y 0.0 z 0.0
Setting atom values ...
  4 settings made for x
  4 settings made for y
  4 settings made for z
change_box all     x final 0 3.8317747885346964 y final 0 3.8317747885346964 z final 0 3.8317747885346964      xy final 0.0 xz final 0.0 yz final 0.0 units box
Changing box ...
  triclinic box = (0 0 0) to (3.8317748 3.795626 3.795626) with tilt (0 0 0)
  triclinic box = (0 0 0) to (3.8317748 3.8317748 3.795626) with tilt (0 0 0)
  triclinic box = (0 0 0) to (3.8317748 3.8317748 3.8317748) with tilt (0 0 0)
  triclinic box = (0 0 0) to (3.8317748 3.8317748 3.8317748) with tilt (0 0 0)
  triclinic box = (0 0 0) to (3.8317748 3.8317748 3.8317748) with tilt (0 0 0)
  triclinic box = (0 0 0) to (3.8317748 3.8317748 3.8317748) with tilt (0 0 0)
echo none
run 0
WARNING: No fixes with time integration, atoms won't move (src/src/verlet.cpp:60)
Per MPI rank memory allocation (min/avg/max) = 3.245 | 3.245 | 3.245 Mbytes
    PotEng          Pxx           E_mol          E_coul    
-13.65169      -149359.67      0              0            
Loop time of 1.042e-06 on 1 procs for 0 steps with 4 atoms

96.0% CPU use with 1 MPI tasks x no OpenMP threads

MPI task timing breakdown:
Section |  min time  |  avg time  |  max time  |%varavg| %total
---------------------------------------------------------------
Pair    | 0          | 0          | 0          |   0.0 |  0.00
Neigh   | 0          | 0          | 0          |   0.0 |  0.00
Comm    | 0          | 0          | 0          |   0.0 |  0.00
Output  | 0          | 0          | 0          |   0.0 |  0.00
Modify  | 0          | 0          | 0          |   0.0 |  0.00
Other   |            | 1.042e-06  |            |       |100.00

Nlocal:              4 ave           4 max           4 min
Histogram: 1 0 0 0 0 0 0 0 0 0
Nghost:            662 ave         662 max         662 min
Histogram: 1 0 0 0 0 0 0 0 0 0
Neighs:            280 ave         280 max         280 min
Histogram: 1 0 0 0 0 0 0 0 0 0

Total # of neighbors = 280
Ave neighs/atom = 70
Neighbor list builds = 0
Dangerous builds = 0
set atom * x 0.0 y 0.0 z 0.0
Setting atom values ...
  4 settings made for x
  4 settings made for y
  4 settings made for z
change_box all     x final 0 3.8679236072944585 y final 0 3.8679236072944585 z final 0 3.8679236072944585      xy final 0.0 xz final 0.0 yz final 0.0 units box
Changing box ...
  triclinic box = (0 0 0) to (3.8679236 3.8317748 3.8317748) with tilt (0 0 0)
  triclinic box = (0 0 0) to (3.8679236 3.8679236 3.8317748) with tilt (0 0 0)
  triclinic box = (0 0 0) to (3.8679236 3.8679236 3.8679236) with tilt (0 0 0)
  triclinic box = (0 0 0) to (3.8679236 3.8679236 3.8679236) with tilt (0 0 0)
  triclinic box = (0 0 0) to (3.8679236 3.8679236 3.8679236) with tilt (0 0 0)
  triclinic box = (0 0 0) to (3.8679236 3.8679236 3.8679236) with tilt (0 0 0)
echo none
run 0
WARNING: No fixes with time integration, atoms won't move (src/src/verlet.cpp:60)
Per MPI rank memory allocation (min/avg/max) = 3.221 | 3.221 | 3.221 Mbytes
    PotEng          Pxx           E_mol          E_coul    
-13.495032     -162694.83      0              0            
Loop time of 1.125e-06 on 1 procs for 0 steps with 4 atoms

88.9% CPU use with 1 MPI tasks x no OpenMP threads

MPI task timing breakdown:
Section |  min time  |  avg time  |  max time  |%varavg| %total
---------------------------------------------------------------
Pair    | 0          | 0          | 0          |   0.0 |  0.00
Neigh   | 0          | 0          | 0          |   0.0 |  0.00
Comm    | 0          | 0          | 0          |   0.0 |  0.00
Output  | 0          | 0          | 0          |   0.0 |  0.00
Modify  | 0          | 0          | 0          |   0.0 |  0.00
Other   |            | 1.125e-06  |            |       |100.00

Nlocal:              4 ave           4 max           4 min
Histogram: 1 0 0 0 0 0 0 0 0 0
Nghost:            360 ave         360 max         360 min
Histogram: 1 0 0 0 0 0 0 0 0 0
Neighs:            268 ave         268 max         268 min
Histogram: 1 0 0 0 0 0 0 0 0 0

Total # of neighbors = 268
Ave neighs/atom = 67
Neighbor list builds = 0
Dangerous builds = 0
set atom * x 0.0 y 0.0 z 0.0
Setting atom values ...
  4 settings made for x
  4 settings made for y
  4 settings made for z
change_box all     x final 0 3.9040724260542192 y final 0 3.9040724260542192 z final 0 3.9040724260542192      xy final 0.0 xz final 0.0 yz final 0.0 units box
Changing box ...
  triclinic box = (0 0 0) to (3.9040724 3.8679236 3.8679236) with tilt (0 0 0)
  triclinic box = (0 0 0) to (3.9040724 3.9040724 3.8679236) with tilt (0 0 0)
  triclinic box = (0 0 0) to (3.9040724 3.9040724 3.9040724) with tilt (0 0 0)
  triclinic box = (0 0 0) to (3.9040724 3.9040724 3.9040724) with tilt (0 0 0)
  triclinic box = (0 0 0) to (3.9040724 3.9040724 3.9040724) with tilt (0 0 0)
  triclinic box = (0 0 0) to (3.9040724 3.9040724 3.9040724) with tilt (0 0 0)
echo none
run 0
WARNING: No fixes with time integration, atoms won't move (src/src/verlet.cpp:60)
Per MPI rank memory allocation (min/avg/max) = 3.221 | 3.221 | 3.221 Mbytes
    PotEng          Pxx           E_mol          E_coul    
-13.322413     -174836.9       0              0            
Loop time of 1e-06 on 1 procs for 0 steps with 4 atoms

300.0% CPU use with 1 MPI tasks x no OpenMP threads

MPI task timing breakdown:
Section |  min time  |  avg time  |  max time  |%varavg| %total
---------------------------------------------------------------
Pair    | 0          | 0          | 0          |   0.0 |  0.00
Neigh   | 0          | 0          | 0          |   0.0 |  0.00
Comm    | 0          | 0          | 0          |   0.0 |  0.00
Output  | 0          | 0          | 0          |   0.0 |  0.00
Modify  | 0          | 0          | 0          |   0.0 |  0.00
Other   |            | 1e-06      |            |       |100.00

Nlocal:              4 ave           4 max           4 min
Histogram: 1 0 0 0 0 0 0 0 0 0
Nghost:            360 ave         360 max         360 min
Histogram: 1 0 0 0 0 0 0 0 0 0
Neighs:            268 ave         268 max         268 min
Histogram: 1 0 0 0 0 0 0 0 0 0

Total # of neighbors = 268
Ave neighs/atom = 67
Neighbor list builds = 0
Dangerous builds = 0
set atom * x 0.0 y 0.0 z 0.0
Setting atom values ...
  4 settings made for x
  4 settings made for y
  4 settings made for z
change_box all     x final 0 3.9402212448139813 y final 0 3.9402212448139813 z final 0 3.9402212448139813      xy final 0.0 xz final 0.0 yz final 0.0 units box
Changing box ...
  triclinic box = (0 0 0) to (3.9402212 3.9040724 3.9040724) with tilt (0 0 0)
  triclinic box = (0 0 0) to (3.9402212 3.9402212 3.9040724) with tilt (0 0 0)
  triclinic box = (0 0 0) to (3.9402212 3.9402212 3.9402212) with tilt (0 0 0)
  triclinic box = (0 0 0) to (3.9402212 3.9402212 3.9402212) with tilt (0 0 0)
  triclinic box = (0 0 0) to (3.9402212 3.9402212 3.9402212) with tilt (0 0 0)
  triclinic box = (0 0 0) to (3.9402212 3.9402212 3.9402212) with tilt (0 0 0)
echo none
run 0
WARNING: No fixes with time integration, atoms won't move (src/src/verlet.cpp:60)
Per MPI rank memory allocation (min/avg/max) = 3.221 | 3.221 | 3.221 Mbytes
    PotEng          Pxx           E_mol          E_coul    
-13.134525     -185818.67      0              0            
Loop time of 1e-06 on 1 procs for 0 steps with 4 atoms

100.0% CPU use with 1 MPI tasks x no OpenMP threads

MPI task timing breakdown:
Section |  min time  |  avg time  |  max time  |%varavg| %total
---------------------------------------------------------------
Pair    | 0          | 0          | 0          |   0.0 |  0.00
Neigh   | 0          | 0          | 0          |   0.0 |  0.00
Comm    | 0          | 0          | 0          |   0.0 |  0.00
Output  | 0          | 0          | 0          |   0.0 |  0.00
Modify  | 0          | 0          | 0          |   0.0 |  0.00
Other   |            | 1e-06      |            |       |100.00

Nlocal:              4 ave           4 max           4 min
Histogram: 1 0 0 0 0 0 0 0 0 0
Nghost:            360 ave         360 max         360 min
Histogram: 1 0 0 0 0 0 0 0 0 0
Neighs:            268 ave         268 max         268 min
Histogram: 1 0 0 0 0 0 0 0 0 0

Total # of neighbors = 268
Ave neighs/atom = 67
Neighbor list builds = 0
Dangerous builds = 0
set atom * x 0.0 y 0.0 z 0.0
Setting atom values ...
  4 settings made for x
  4 settings made for y
  4 settings made for z
change_box all     x final 0 3.9763700635737416 y final 0 3.9763700635737416 z final 0 3.9763700635737416      xy final 0.0 xz final 0.0 yz final 0.0 units box
Changing box ...
  triclinic box = (0 0 0) to (3.9763701 3.9402212 3.9402212) with tilt (0 0 0)
  triclinic box = (0 0 0) to (3.9763701 3.9763701 3.9402212) with tilt (0 0 0)
  triclinic box = (0 0 0) to (3.9763701 3.9763701 3.9763701) with tilt (0 0 0)
  triclinic box = (0 0 0) to (3.9763701 3.9763701 3.9763701) with tilt (0 0 0)
  triclinic box = (0 0 0) to (3.9763701 3.9763701 3.9763701) with tilt (0 0 0)
  triclinic box = (0 0 0) to (3.9763701 3.9763701 3.9763701) with tilt (0 0 0)
echo none
run 0
WARNING: No fixes with time integration, atoms won't move (src/src/verlet.cpp:60)
Per MPI rank memory allocation (min/avg/max) = 3.221 | 3.221 | 3.221 Mbytes
    PotEng          Pxx           E_mol          E_coul    
-12.932164     -195558.05      0              0            
Loop time of 1.166e-06 on 1 procs for 0 steps with 4 atoms

85.8% CPU use with 1 MPI tasks x no OpenMP threads

MPI task timing breakdown:
Section |  min time  |  avg time  |  max time  |%varavg| %total
---------------------------------------------------------------
Pair    | 0          | 0          | 0          |   0.0 |  0.00
Neigh   | 0          | 0          | 0          |   0.0 |  0.00
Comm    | 0          | 0          | 0          |   0.0 |  0.00
Output  | 0          | 0          | 0          |   0.0 |  0.00
Modify  | 0          | 0          | 0          |   0.0 |  0.00
Other   |            | 1.166e-06  |            |       |100.00

Nlocal:              4 ave           4 max           4 min
Histogram: 1 0 0 0 0 0 0 0 0 0
Nghost:            360 ave         360 max         360 min
Histogram: 1 0 0 0 0 0 0 0 0 0
Neighs:            268 ave         268 max         268 min
Histogram: 1 0 0 0 0 0 0 0 0 0

Total # of neighbors = 268
Ave neighs/atom = 67
Neighbor list builds = 0
Dangerous builds = 0
set atom * x 0.0 y 0.0 z 0.0
Setting atom values ...
  4 settings made for x
  4 settings made for y
  4 settings made for z
change_box all     x final 0 10.844645627928386 y final 0 10.844645627928386 z final 0 10.844645627928386      xy final 0.0 xz final 0.0 yz final 0.0 units box
Changing box ...
  triclinic box = (0 0 0) to (10.844646 3.9763701 3.9763701) with tilt (0 0 0)
  triclinic box = (0 0 0) to (10.844646 10.844646 3.9763701) with tilt (0 0 0)
  triclinic box = (0 0 0) to (10.844646 10.844646 10.844646) with tilt (0 0 0)
  triclinic box = (0 0 0) to (10.844646 10.844646 10.844646) with tilt (0 0 0)
  triclinic box = (0 0 0) to (10.844646 10.844646 10.844646) with tilt (0 0 0)
  triclinic box = (0 0 0) to (10.844646 10.844646 10.844646) with tilt (0 0 0)
echo none
Created 104 atoms
  using lattice units in triclinic box = (0 0 0) to (10.844646 10.844646 10.844646) with tilt (0 0 0)
  create_atoms CPU = 0.000 seconds
Setting atom values ...
  1 settings made for type
Setting atom values ...
  1 settings made for type
Setting atom values ...
  1 settings made for type
Setting atom values ...
  1 settings made for type
Setting atom values ...
  1 settings made for type
Setting atom values ...
  1 settings made for type
Setting atom values ...
  1 settings made for type
Setting atom values ...
  1 settings made for type
Setting atom values ...
  1 settings made for type
Setting atom values ...
  1 settings made for type
Setting atom values ...
  1 settings made for type
Setting atom values ...
  1 settings made for type
Setting atom values ...
  1 settings made for type
Setting atom values ...
  1 settings made for type
Setting atom values ...
  1 settings made for type
Setting atom values ...
  1 settings made for type
Setting atom values ...
  1 settings made for type
Setting atom values ...
  1 settings made for type
Setting atom values ...
  1 settings made for type
Setting atom values ...
  1 settings made for type
Setting atom values ...
  1 settings made for type
Setting atom values ...
  1 settings made for type
Setting atom values ...
  1 settings made for type
Setting atom values ...
  1 settings made for type
Setting atom values ...
  1 settings made for type
Setting atom values ...
  1 settings made for type
Setting atom values ...
  1 settings made for type
Setting atom values ...
  1 settings made for type
Setting atom values ...
  1 settings made for type
Setting atom values ...
  1 settings made for type
Setting atom values ...
  1 settings made for type
Setting atom values ...
  1 settings made for type
Setting atom values ...
  1 settings made for type
Setting atom values ...
  1 settings made for type
Setting atom values ...
  1 settings made for type
Setting atom values ...
  1 settings made for type
Setting atom values ...
  1 settings made for type
Setting atom values ...
  1 settings made for type
Setting atom values ...
  1 settings made for type
Setting atom values ...
  1 settings made for type
Setting atom values ...
  1 settings made for type
Setting atom values ...
  1 settings made for type
Setting atom values ...
  1 settings made for type
Setting atom values ...
  1 settings made for type
Setting atom values ...
  1 settings made for type
Setting atom values ...
  1 settings made for type
Setting atom values ...
  1 settings made for type
Setting atom values ...
  1 settings made for type
Setting atom values ...
  1 settings made for type
Setting atom values ...
  1 settings made for type
Setting atom values ...
  1 settings made for type
Setting atom values ...
  1 settings made for type
Setting atom values ...
  1 settings made for type
Setting atom values ...
  1 settings made for type
Setting atom values ...
  1 settings made for type
Setting atom values ...
  1 settings made for type
Setting atom values ...
  1 settings made for type
Setting atom values ...
  1 settings made for type
Setting atom values ...
  1 settings made for type
Setting atom values ...
  1 settings made for type
Setting atom values ...
  1 settings made for type
Setting atom values ...
  1 settings made for type
Setting atom values ...
  1 settings made for type
Setting atom values ...
  1 settings made for type
Setting atom values ...
  1 settings made for type
Setting atom values ...
  1 settings made for type
Setting atom values ...
  1 settings made for type
Setting atom values ...
  1 settings made for type
Setting atom values ...
  1 settings made for type
Setting atom values ...
  1 settings made for type
Setting atom values ...
  1 settings made for type
Setting atom values ...
  1 settings made for type
Setting atom values ...
  1 settings made for type
Setting atom values ...
  1 settings made for type
Setting atom values ...
  1 settings made for type
Setting atom values ...
  1 settings made for type
Setting atom values ...
  1 settings made for type
Setting atom values ...
  1 settings made for type
Setting atom values ...
  1 settings made for type
Setting atom values ...
  1 settings made for type
Setting atom values ...
  1 settings made for type
Setting atom values ...
  1 settings made for type
Setting atom values ...
  1 settings made for type
Setting atom values ...
  1 settings made for type
Setting atom values ...
  1 settings made for type
Setting atom values ...
  1 settings made for type
Setting atom values ...
  1 settings made for type
Setting atom values ...
  1 settings made for type
Setting atom values ...
  1 settings made for type
Setting atom values ...
  1 settings made for type
Setting atom values ...
  1 settings made for type
Setting atom values ...
  1 settings made for type
Setting atom values ...
  1 settings made for type
Setting atom values ...
  1 settings made for type
Setting atom values ...
  1 settings made for type
Setting atom values ...
  1 settings made for type
Setting atom values ...
  1 settings made for type
Setting atom values ...
  1 settings made for type
Setting atom values ...
  1 settings made for type
Setting atom values ...
  1 settings made for type
Setting atom values ...
  1 settings made for type
Setting atom values ...
  1 settings made for type
Setting atom values ...
  1 settings made for type
Setting atom values ...
  1 settings made for type
run 0
WARNING: No fixes with time integration, atoms won't move (src/src/verlet.cpp:60)
Per MPI rank memory allocation (min/avg/max) = 3.274 | 3.274 | 3.274 Mbytes
    PotEng          Pxx           E_mol          E_coul    
-382.31944      89.665773      0              0            
Loop time of 1.125e-06 on 1 procs for 0 steps with 108 atoms

177.8% CPU use with 1 MPI tasks x no OpenMP threads

MPI task timing breakdown:
Section |  min time  |  avg time  |  max time  |%varavg| %total
---------------------------------------------------------------
Pair    | 0          | 0          | 0          |   0.0 |  0.00
Neigh   | 0          | 0          | 0          |   0.0 |  0.00
Comm    | 0          | 0          | 0          |   0.0 |  0.00
Output  | 0          | 0          | 0          |   0.0 |  0.00
Modify  | 0          | 0          | 0          |   0.0 |  0.00
Other   |            | 1.125e-06  |            |       |100.00

Nlocal:            108 ave         108 max         108 min
Histogram: 1 0 0 0 0 0 0 0 0 0
Nghost:           1580 ave        1580 max        1580 min
Histogram: 1 0 0 0 0 0 0 0 0 0
Neighs:           9504 ave        9504 max        9504 min
Histogram: 1 0 0 0 0 0 0 0 0 0

Total # of neighbors = 9504
Ave neighs/atom = 88
Neighbor list builds = 0
Dangerous builds = 0
set atom * x 0.0 y 0.0 z 0.0
Setting atom values ...
  108 settings made for x
  108 settings made for y
  108 settings made for z
change_box all     x final 0 10.627752715369818 y final 0 10.844645627928386 z final 0 10.844645627928386      xy final 0.0 xz final 0.0 yz final 0.0 units box
Changing box ...
  triclinic box = (0 0 0) to (10.627753 10.844646 10.844646) with tilt (0 0 0)
  triclinic box = (0 0 0) to (10.627753 10.844646 10.844646) with tilt (0 0 0)
  triclinic box = (0 0 0) to (10.627753 10.844646 10.844646) with tilt (0 0 0)
  triclinic box = (0 0 0) to (10.627753 10.844646 10.844646) with tilt (0 0 0)
  triclinic box = (0 0 0) to (10.627753 10.844646 10.844646) with tilt (0 0 0)
  triclinic box = (0 0 0) to (10.627753 10.844646 10.844646) with tilt (0 0 0)
echo none
run 0
WARNING: No fixes with time integration, atoms won't move (src/src/verlet.cpp:60)
Per MPI rank memory allocation (min/avg/max) = 3.274 | 3.274 | 3.274 Mbytes
    PotEng          Pxx           E_mol          E_coul    
-382.02286      38707.872      0              0            
Loop time of 1.125e-06 on 1 procs for 0 steps with 108 atoms

0.0% CPU use with 1 MPI tasks x no OpenMP threads

MPI task timing breakdown:
Section |  min time  |  avg time  |  max time  |%varavg| %total
---------------------------------------------------------------
Pair    | 0          | 0          | 0          |   0.0 |  0.00
Neigh   | 0          | 0          | 0          |   0.0 |  0.00
Comm    | 0          | 0          | 0          |   0.0 |  0.00
Output  | 0          | 0          | 0          |   0.0 |  0.00
Modify  | 0          | 0          | 0          |   0.0 |  0.00
Other   |            | 1.125e-06  |            |       |100.00

Nlocal:            108 ave         108 max         108 min
Histogram: 1 0 0 0 0 0 0 0 0 0
Nghost:           1580 ave        1580 max        1580 min
Histogram: 1 0 0 0 0 0 0 0 0 0
Neighs:           9504 ave        9504 max        9504 min
Histogram: 1 0 0 0 0 0 0 0 0 0

Total # of neighbors = 9504
Ave neighs/atom = 88
Neighbor list builds = 0
Dangerous builds = 0
set atom * x 0.0 y 0.0 z 0.0
Setting atom values ...
  108 settings made for x
  108 settings made for y
  108 settings made for z
change_box all     x final 0 10.736199171649103 y final 0 10.844645627928386 z final 0 10.844645627928386      xy final 0.0 xz final 0.0 yz final 0.0 units box
Changing box ...
  triclinic box = (0 0 0) to (10.736199 10.844646 10.844646) with tilt (0 0 0)
  triclinic box = (0 0 0) to (10.736199 10.844646 10.844646) with tilt (0 0 0)
  triclinic box = (0 0 0) to (10.736199 10.844646 10.844646) with tilt (0 0 0)
  triclinic box = (0 0 0) to (10.736199 10.844646 10.844646) with tilt (0 0 0)
  triclinic box = (0 0 0) to (10.736199 10.844646 10.844646) with tilt (0 0 0)
  triclinic box = (0 0 0) to (10.736199 10.844646 10.844646) with tilt (0 0 0)
echo none
run 0
WARNING: No fixes with time integration, atoms won't move (src/src/verlet.cpp:60)
Per MPI rank memory allocation (min/avg/max) = 3.274 | 3.274 | 3.274 Mbytes
    PotEng          Pxx           E_mol          E_coul    
-382.24804      18241.958      0              0            
Loop time of 1.166e-06 on 1 procs for 0 steps with 108 atoms

85.8% CPU use with 1 MPI tasks x no OpenMP threads

MPI task timing breakdown:
Section |  min time  |  avg time  |  max time  |%varavg| %total
---------------------------------------------------------------
Pair    | 0          | 0          | 0          |   0.0 |  0.00
Neigh   | 0          | 0          | 0          |   0.0 |  0.00
Comm    | 0          | 0          | 0          |   0.0 |  0.00
Output  | 0          | 0          | 0          |   0.0 |  0.00
Modify  | 0          | 0          | 0          |   0.0 |  0.00
Other   |            | 1.166e-06  |            |       |100.00

Nlocal:            108 ave         108 max         108 min
Histogram: 1 0 0 0 0 0 0 0 0 0
Nghost:           1580 ave        1580 max        1580 min
Histogram: 1 0 0 0 0 0 0 0 0 0
Neighs:           9504 ave        9504 max        9504 min
Histogram: 1 0 0 0 0 0 0 0 0 0

Total # of neighbors = 9504
Ave neighs/atom = 88
Neighbor list builds = 0
Dangerous builds = 0
set atom * x 0.0 y 0.0 z 0.0
Setting atom values ...
  108 settings made for x
  108 settings made for y
  108 settings made for z
change_box all     x final 0 10.844645627928386 y final 0 10.844645627928386 z final 0 10.844645627928386      xy final 0.0 xz final 0.0 yz final 0.0 units box
Changing box ...
  triclinic box = (0 0 0) to (10.844646 10.844646 10.844646) with tilt (0 0 0)
  triclinic box = (0 0 0) to (10.844646 10.844646 10.844646) with tilt (0 0 0)
  triclinic box = (0 0 0) to (10.844646 10.844646 10.844646) with tilt (0 0 0)
  triclinic box = (0 0 0) to (10.844646 10.844646 10.844646) with tilt (0 0 0)
  triclinic box = (0 0 0) to (10.844646 10.844646 10.844646) with tilt (0 0 0)
  triclinic box = (0 0 0) to (10.844646 10.844646 10.844646) with tilt (0 0 0)
echo none
run 0
WARNING: No fixes with time integration, atoms won't move (src/src/verlet.cpp:60)
Per MPI rank memory allocation (min/avg/max) = 3.274 | 3.274 | 3.274 Mbytes
    PotEng          Pxx           E_mol          E_coul    
-382.31944      89.665773      0              0            
Loop time of 9.58e-07 on 1 procs for 0 steps with 108 atoms

0.0% CPU use with 1 MPI tasks x no OpenMP threads

MPI task timing breakdown:
Section |  min time  |  avg time  |  max time  |%varavg| %total
---------------------------------------------------------------
Pair    | 0          | 0          | 0          |   0.0 |  0.00
Neigh   | 0          | 0          | 0          |   0.0 |  0.00
Comm    | 0          | 0          | 0          |   0.0 |  0.00
Output  | 0          | 0          | 0          |   0.0 |  0.00
Modify  | 0          | 0          | 0          |   0.0 |  0.00
Other   |            | 9.58e-07   |            |       |100.00

Nlocal:            108 ave         108 max         108 min
Histogram: 1 0 0 0 0 0 0 0 0 0
Nghost:           1580 ave        1580 max        1580 min
Histogram: 1 0 0 0 0 0 0 0 0 0
Neighs:           9504 ave        9504 max        9504 min
Histogram: 1 0 0 0 0 0 0 0 0 0

Total # of neighbors = 9504
Ave neighs/atom = 88
Neighbor list builds = 0
Dangerous builds = 0
set atom * x 0.0 y 0.0 z 0.0
Setting atom values ...
  108 settings made for x
  108 settings made for y
  108 settings made for z
change_box all     x final 0 10.95309208420767 y final 0 10.844645627928386 z final 0 10.844645627928386      xy final 0.0 xz final 0.0 yz final 0.0 units box
Changing box ...
  triclinic box = (0 0 0) to (10.953092 10.844646 10.844646) with tilt (0 0 0)
  triclinic box = (0 0 0) to (10.953092 10.844646 10.844646) with tilt (0 0 0)
  triclinic box = (0 0 0) to (10.953092 10.844646 10.844646) with tilt (0 0 0)
  triclinic box = (0 0 0) to (10.953092 10.844646 10.844646) with tilt (0 0 0)
  triclinic box = (0 0 0) to (10.953092 10.844646 10.844646) with tilt (0 0 0)
  triclinic box = (0 0 0) to (10.953092 10.844646 10.844646) with tilt (0 0 0)
echo none
run 0
WARNING: No fixes with time integration, atoms won't move (src/src/verlet.cpp:60)
Per MPI rank memory allocation (min/avg/max) = 3.274 | 3.274 | 3.274 Mbytes
    PotEng          Pxx           E_mol          E_coul    
-382.25498     -15701.193      0              0            
Loop time of 1.041e-06 on 1 procs for 0 steps with 108 atoms

384.2% CPU use with 1 MPI tasks x no OpenMP threads

MPI task timing breakdown:
Section |  min time  |  avg time  |  max time  |%varavg| %total
---------------------------------------------------------------
Pair    | 0          | 0          | 0          |   0.0 |  0.00
Neigh   | 0          | 0          | 0          |   0.0 |  0.00
Comm    | 0          | 0          | 0          |   0.0 |  0.00
Output  | 0          | 0          | 0          |   0.0 |  0.00
Modify  | 0          | 0          | 0          |   0.0 |  0.00
Other   |            | 1.041e-06  |            |       |100.00

Nlocal:            108 ave         108 max         108 min
Histogram: 1 0 0 0 0 0 0 0 0 0
Nghost:           1580 ave        1580 max        1580 min
Histogram: 1 0 0 0 0 0 0 0 0 0
Neighs:           9072 ave        9072 max        9072 min
Histogram: 1 0 0 0 0 0 0 0 0 0

Total # of neighbors = 9072
Ave neighs/atom = 84
Neighbor list builds = 0
Dangerous builds = 0
set atom * x 0.0 y 0.0 z 0.0
Setting atom values ...
  108 settings made for x
  108 settings made for y
  108 settings made for z
change_box all     x final 0 11.061538540486955 y final 0 10.844645627928386 z final 0 10.844645627928386      xy final 0.0 xz final 0.0 yz final 0.0 units box
Changing box ...
  triclinic box = (0 0 0) to (11.061539 10.844646 10.844646) with tilt (0 0 0)
  triclinic box = (0 0 0) to (11.061539 10.844646 10.844646) with tilt (0 0 0)
  triclinic box = (0 0 0) to (11.061539 10.844646 10.844646) with tilt (0 0 0)
  triclinic box = (0 0 0) to (11.061539 10.844646 10.844646) with tilt (0 0 0)
  triclinic box = (0 0 0) to (11.061539 10.844646 10.844646) with tilt (0 0 0)
  triclinic box = (0 0 0) to (11.061539 10.844646 10.844646) with tilt (0 0 0)
echo none
run 0
WARNING: No fixes with time integration, atoms won't move (src/src/verlet.cpp:60)
Per MPI rank memory allocation (min/avg/max) = 3.274 | 3.274 | 3.274 Mbytes
    PotEng          Pxx           E_mol          E_coul    
-382.07445     -29309.094      0              0            
Loop time of 8.75e-07 on 1 procs for 0 steps with 108 atoms

228.6% CPU use with 1 MPI tasks x no OpenMP threads

MPI task timing breakdown:
Section |  min time  |  avg time  |  max time  |%varavg| %total
---------------------------------------------------------------
Pair    | 0          | 0          | 0          |   0.0 |  0.00
Neigh   | 0          | 0          | 0          |   0.0 |  0.00
Comm    | 0          | 0          | 0          |   0.0 |  0.00
Output  | 0          | 0          | 0          |   0.0 |  0.00
Modify  | 0          | 0          | 0          |   0.0 |  0.00
Other   |            | 8.75e-07   |            |       |100.00

Nlocal:            108 ave         108 max         108 min
Histogram: 1 0 0 0 0 0 0 0 0 0
Nghost:           1580 ave        1580 max        1580 min
Histogram: 1 0 0 0 0 0 0 0 0 0
Neighs:           8640 ave        8640 max        8640 min
Histogram: 1 0 0 0 0 0 0 0 0 0

Total # of neighbors = 8640
Ave neighs/atom = 80
Neighbor list builds = 0
Dangerous builds = 0
set atom * x 0.0 y 0.0 z 0.0
Setting atom values ...
  108 settings made for x
  108 settings made for y
  108 settings made for z
change_box all     x final 0 10.844645627928386 y final 0 10.844667317197953 z final 0 10.844623938702199      xy final 0.0 xz final 0.0 yz final 0.021689247877404397 units box
Changing box ...
  triclinic box = (0 0 0) to (10.844646 10.844646 10.844646) with tilt (0 0 0)
  triclinic box = (0 0 0) to (10.844646 10.844667 10.844646) with tilt (0 0 0)
  triclinic box = (0 0 0) to (10.844646 10.844667 10.844624) with tilt (0 0 0)
  triclinic box = (0 0 0) to (10.844646 10.844667 10.844624) with tilt (0 0 0)
  triclinic box = (0 0 0) to (10.844646 10.844667 10.844624) with tilt (0 0 0)
  triclinic box = (0 0 0) to (10.844646 10.844667 10.844624) with tilt (0 0 0.021689248)
echo none
run 0
WARNING: No fixes with time integration, atoms won't move (src/src/verlet.cpp:60)
Per MPI rank memory allocation (min/avg/max) = 3.274 | 3.274 | 3.274 Mbytes
    PotEng          Pxx           E_mol          E_coul    
-382.31802      93.815005      0              0            
Loop time of 9.59e-07 on 1 procs for 0 steps with 108 atoms

104.3% CPU use with 1 MPI tasks x no OpenMP threads

MPI task timing breakdown:
Section |  min time  |  avg time  |  max time  |%varavg| %total
---------------------------------------------------------------
Pair    | 0          | 0          | 0          |   0.0 |  0.00
Neigh   | 0          | 0          | 0          |   0.0 |  0.00
Comm    | 0          | 0          | 0          |   0.0 |  0.00
Output  | 0          | 0          | 0          |   0.0 |  0.00
Modify  | 0          | 0          | 0          |   0.0 |  0.00
Other   |            | 9.59e-07   |            |       |100.00

Nlocal:            108 ave         108 max         108 min
Histogram: 1 0 0 0 0 0 0 0 0 0
Nghost:           1580 ave        1580 max        1580 min
Histogram: 1 0 0 0 0 0 0 0 0 0
Neighs:           9504 ave        9504 max        9504 min
Histogram: 1 0 0 0 0 0 0 0 0 0

Total # of neighbors = 9504
Ave neighs/atom = 88
Neighbor list builds = 0
Dangerous builds = 0
set atom * x 0.0 y 0.0 z 0.0
Setting atom values ...
  108 settings made for x
  108 settings made for y
  108 settings made for z
change_box all     x final 0 10.844645627928386 y final 0 10.844874718647532 z final 0 10.844416542048629      xy final 0.0 xz final 0.0 yz final 0.0704887075233161 units box
Changing box ...
  triclinic box = (0 0 0) to (10.844646 10.844667 10.844624) with tilt (0 0 0.021689248)
  triclinic box = (0 0 0) to (10.844646 10.844875 10.844624) with tilt (0 0 0.021689248)
  triclinic box = (0 0 0) to (10.844646 10.844875 10.844417) with tilt (0 0 0.021689248)
  triclinic box = (0 0 0) to (10.844646 10.844875 10.844417) with tilt (0 0 0.021689248)
  triclinic box = (0 0 0) to (10.844646 10.844875 10.844417) with tilt (0 0 0.021689248)
  triclinic box = (0 0 0) to (10.844646 10.844875 10.844417) with tilt (0 0 0.070488708)
echo none
run 0
WARNING: No fixes with time integration, atoms won't move (src/src/verlet.cpp:60)
Per MPI rank memory allocation (min/avg/max) = 3.274 | 3.274 | 3.274 Mbytes
    PotEng          Pxx           E_mol          E_coul    
-382.30649      134.80861      0              0            
Loop time of 9.58e-07 on 1 procs for 0 steps with 108 atoms

104.4% CPU use with 1 MPI tasks x no OpenMP threads

MPI task timing breakdown:
Section |  min time  |  avg time  |  max time  |%varavg| %total
---------------------------------------------------------------
Pair    | 0          | 0          | 0          |   0.0 |  0.00
Neigh   | 0          | 0          | 0          |   0.0 |  0.00
Comm    | 0          | 0          | 0          |   0.0 |  0.00
Output  | 0          | 0          | 0          |   0.0 |  0.00
Modify  | 0          | 0          | 0          |   0.0 |  0.00
Other   |            | 9.58e-07   |            |       |100.00

Nlocal:            108 ave         108 max         108 min
Histogram: 1 0 0 0 0 0 0 0 0 0
Nghost:           1580 ave        1580 max        1580 min
Histogram: 1 0 0 0 0 0 0 0 0 0
Neighs:           9504 ave        9504 max        9504 min
Histogram: 1 0 0 0 0 0 0 0 0 0

Total # of neighbors = 9504
Ave neighs/atom = 88
Neighbor list builds = 0
Dangerous builds = 0
set atom * x 0.0 y 0.0 z 0.0
Setting atom values ...
  108 settings made for x
  108 settings made for y
  108 settings made for z
change_box all     x final 0 10.844645627928386 y final 0 10.84530170914302 z final 0 10.843989586403064      xy final 0.0 xz final 0.0 yz final 0.11928388545043371 units box
Changing box ...
  triclinic box = (0 0 0) to (10.844646 10.844875 10.844417) with tilt (0 0 0.070488708)
  triclinic box = (0 0 0) to (10.844646 10.845302 10.844417) with tilt (0 0 0.070488708)
  triclinic box = (0 0 0) to (10.844646 10.845302 10.84399) with tilt (0 0 0.070488708)
  triclinic box = (0 0 0) to (10.844646 10.845302 10.84399) with tilt (0 0 0.070488708)
  triclinic box = (0 0 0) to (10.844646 10.845302 10.84399) with tilt (0 0 0.070488708)
  triclinic box = (0 0 0) to (10.844646 10.845302 10.84399) with tilt (0 0 0.11928389)
echo none
run 0
WARNING: No fixes with time integration, atoms won't move (src/src/verlet.cpp:60)
Per MPI rank memory allocation (min/avg/max) = 3.274 | 3.274 | 3.274 Mbytes
    PotEng          Pxx           E_mol          E_coul    
-382.28253      219.90718      0              0            
Loop time of 9.59e-07 on 1 procs for 0 steps with 108 atoms

208.6% CPU use with 1 MPI tasks x no OpenMP threads

MPI task timing breakdown:
Section |  min time  |  avg time  |  max time  |%varavg| %total
---------------------------------------------------------------
Pair    | 0          | 0          | 0          |   0.0 |  0.00
Neigh   | 0          | 0          | 0          |   0.0 |  0.00
Comm    | 0          | 0          | 0          |   0.0 |  0.00
Output  | 0          | 0          | 0          |   0.0 |  0.00
Modify  | 0          | 0          | 0          |   0.0 |  0.00
Other   |            | 9.59e-07   |            |       |100.00

Nlocal:            108 ave         108 max         108 min
Histogram: 1 0 0 0 0 0 0 0 0 0
Nghost:           1580 ave        1580 max        1580 min
Histogram: 1 0 0 0 0 0 0 0 0 0
Neighs:           9504 ave        9504 max        9504 min
Histogram: 1 0 0 0 0 0 0 0 0 0

Total # of neighbors = 9504
Ave neighs/atom = 88
Neighbor list builds = 0
Dangerous builds = 0
set atom * x 0.0 y 0.0 z 0.0
Setting atom values ...
  108 settings made for x
  108 settings made for y
  108 settings made for z
change_box all     x final 0 10.844645627928386 y final 0 10.845948262749637 z final 0 10.843343149557956      xy final 0.0 xz final 0.0 yz final 0.1680718188181483 units box
Changing box ...
  triclinic box = (0 0 0) to (10.844646 10.845302 10.84399) with tilt (0 0 0.11928389)
  triclinic box = (0 0 0) to (10.844646 10.845948 10.84399) with tilt (0 0 0.11928389)
  triclinic box = (0 0 0) to (10.844646 10.845948 10.843343) with tilt (0 0 0.11928389)
  triclinic box = (0 0 0) to (10.844646 10.845948 10.843343) with tilt (0 0 0.11928389)
  triclinic box = (0 0 0) to (10.844646 10.845948 10.843343) with tilt (0 0 0.11928389)
  triclinic box = (0 0 0) to (10.844646 10.845948 10.843343) with tilt (0 0 0.16807182)
echo none
run 0
WARNING: No fixes with time integration, atoms won't move (src/src/verlet.cpp:60)
Per MPI rank memory allocation (min/avg/max) = 3.274 | 3.274 | 3.274 Mbytes
    PotEng          Pxx           E_mol          E_coul    
-382.24658      346.6195       0              0            
Loop time of 9.16e-07 on 1 procs for 0 steps with 108 atoms

109.2% CPU use with 1 MPI tasks x no OpenMP threads

MPI task timing breakdown:
Section |  min time  |  avg time  |  max time  |%varavg| %total
---------------------------------------------------------------
Pair    | 0          | 0          | 0          |   0.0 |  0.00
Neigh   | 0          | 0          | 0          |   0.0 |  0.00
Comm    | 0          | 0          | 0          |   0.0 |  0.00
Output  | 0          | 0          | 0          |   0.0 |  0.00
Modify  | 0          | 0          | 0          |   0.0 |  0.00
Other   |            | 9.16e-07   |            |       |100.00

Nlocal:            108 ave         108 max         108 min
Histogram: 1 0 0 0 0 0 0 0 0 0
Nghost:           1580 ave        1580 max        1580 min
Histogram: 1 0 0 0 0 0 0 0 0 0
Neighs:           9396 ave        9396 max        9396 min
Histogram: 1 0 0 0 0 0 0 0 0 0

Total # of neighbors = 9396
Ave neighs/atom = 87
Neighbor list builds = 0
Dangerous builds = 0
set atom * x 0.0 y 0.0 z 0.0
Setting atom values ...
  108 settings made for x
  108 settings made for y
  108 settings made for z
change_box all     x final 0 10.844645627928386 y final 0 10.846814340204428 z final 0 10.84247734926472      xy final 0.0 xz final 0.0 yz final 0.21684954698529443 units box
Changing box ...
  triclinic box = (0 0 0) to (10.844646 10.845948 10.843343) with tilt (0 0 0.16807182)
  triclinic box = (0 0 0) to (10.844646 10.846814 10.843343) with tilt (0 0 0.16807182)
  triclinic box = (0 0 0) to (10.844646 10.846814 10.842477) with tilt (0 0 0.16807182)
  triclinic box = (0 0 0) to (10.844646 10.846814 10.842477) with tilt (0 0 0.16807182)
  triclinic box = (0 0 0) to (10.844646 10.846814 10.842477) with tilt (0 0 0.16807182)
  triclinic box = (0 0 0) to (10.844646 10.846814 10.842477) with tilt (0 0 0.21684955)
echo none
run 0
WARNING: No fixes with time integration, atoms won't move (src/src/verlet.cpp:60)
Per MPI rank memory allocation (min/avg/max) = 3.274 | 3.274 | 3.274 Mbytes
    PotEng          Pxx           E_mol          E_coul    
-382.19843      515.09603      0              0            
Loop time of 1e-06 on 1 procs for 0 steps with 108 atoms

100.0% CPU use with 1 MPI tasks x no OpenMP threads

MPI task timing breakdown:
Section |  min time  |  avg time  |  max time  |%varavg| %total
---------------------------------------------------------------
Pair    | 0          | 0          | 0          |   0.0 |  0.00
Neigh   | 0          | 0          | 0          |   0.0 |  0.00
Comm    | 0          | 0          | 0          |   0.0 |  0.00
Output  | 0          | 0          | 0          |   0.0 |  0.00
Modify  | 0          | 0          | 0          |   0.0 |  0.00
Other   |            | 1e-06      |            |       |100.00

Nlocal:            108 ave         108 max         108 min
Histogram: 1 0 0 0 0 0 0 0 0 0
Nghost:           1580 ave        1580 max        1580 min
Histogram: 1 0 0 0 0 0 0 0 0 0
Neighs:           9396 ave        9396 max        9396 min
Histogram: 1 0 0 0 0 0 0 0 0 0

Total # of neighbors = 9396
Ave neighs/atom = 87
Neighbor list builds = 0
Dangerous builds = 0
set atom * x 0.0 y 0.0 z 0.0
Setting atom values ...
  108 settings made for x
  108 settings made for y
  108 settings made for z
change_box all     x final 0 10.844645627928386 y final 0 10.844645627928386 z final 0 10.844645627928386      xy final 0.0 xz final 0.0 yz final 0.0 units box
Changing box ...
  triclinic box = (0 0 0) to (10.844646 10.846814 10.842477) with tilt (0 0 0.21684955)
  triclinic box = (0 0 0) to (10.844646 10.844646 10.842477) with tilt (0 0 0.21684955)
  triclinic box = (0 0 0) to (10.844646 10.844646 10.844646) with tilt (0 0 0.21684955)
[...]
echo none
run 0
Per MPI rank memory allocation (min/avg/max) = 3.393 | 3.393 | 3.393 Mbytes
    PotEng          Pxx           E_mol          E_coul    
-539.37668     -885.21469      0              0            
Loop time of 9.58e-07 on 1 procs for 0 steps with 160 atoms

104.4% CPU use with 1 MPI tasks x no OpenMP threads

MPI task timing breakdown:
Section |  min time  |  avg time  |  max time  |%varavg| %total
---------------------------------------------------------------
Pair    | 0          | 0          | 0          |   0.0 |  0.00
Neigh   | 0          | 0          | 0          |   0.0 |  0.00
Comm    | 0          | 0          | 0          |   0.0 |  0.00
Output  | 0          | 0          | 0          |   0.0 |  0.00
Modify  | 0          | 0          | 0          |   0.0 |  0.00
Other   |            | 9.58e-07   |            |       |100.00

Nlocal:            160 ave         160 max         160 min
Histogram: 1 0 0 0 0 0 0 0 0 0
Nghost:            864 ave         864 max         864 min
Histogram: 1 0 0 0 0 0 0 0 0 0
Neighs:          11136 ave       11136 max       11136 min
Histogram: 1 0 0 0 0 0 0 0 0 0

Total # of neighbors = 11136
Ave neighs/atom = 69.6
Neighbor list builds = 0
Dangerous builds = 0
set atom * x 0.0 y 0.0 z 0.0
Setting atom values ...
  160 settings made for x
  160 settings made for y
  160 settings made for z
change_box all     x final 0 10.130728621302755 y final 0 12.407557922400494 z final 0 33.70803577691789      xy final -10.130728621302755 xz final 0.0 yz final 0.0 units box
Changing box ...
  triclinic box = (0 0 0) to (10.130729 12.407286 33.707297) with tilt (-10.130507 0 0)
  triclinic box = (0 0 0) to (10.130729 12.407558 33.707297) with tilt (-10.130507 0 0)
  triclinic box = (0 0 0) to (10.130729 12.407558 33.708036) with tilt (-10.130507 0 0)
  triclinic box = (0 0 0) to (10.130729 12.407558 33.708036) with tilt (-10.130729 0 0)
  triclinic box = (0 0 0) to (10.130729 12.407558 33.708036) with tilt (-10.130729 0 0)
  triclinic box = (0 0 0) to (10.130729 12.407558 33.708036) with tilt (-10.130729 0 0)
echo none
run 0
Per MPI rank memory allocation (min/avg/max) = 3.393 | 3.393 | 3.393 Mbytes
    PotEng          Pxx           E_mol          E_coul    
-539.37762     -940.13973      0              0            
Loop time of 1.208e-06 on 1 procs for 0 steps with 160 atoms

0.0% CPU use with 1 MPI tasks x no OpenMP threads

MPI task timing breakdown:
Section |  min time  |  avg time  |  max time  |%varavg| %total
---------------------------------------------------------------
Pair    | 0          | 0          | 0          |   0.0 |  0.00
Neigh   | 0          | 0          | 0          |   0.0 |  0.00
Comm    | 0          | 0          | 0          |   0.0 |  0.00
Output  | 0          | 0          | 0          |   0.0 |  0.00
Modify  | 0          | 0          | 0          |   0.0 |  0.00
Other   |            | 1.208e-06  |            |       |100.00

Nlocal:            160 ave         160 max         160 min
Histogram: 1 0 0 0 0 0 0 0 0 0
Nghost:            864 ave         864 max         864 min
Histogram: 1 0 0 0 0 0 0 0 0 0
Neighs:          11136 ave       11136 max       11136 min
Histogram: 1 0 0 0 0 0 0 0 0 0

Total # of neighbors = 11136
Ave neighs/atom = 69.6
Neighbor list builds = 0
Dangerous builds = 0
set atom * x 0.0 y 0.0 z 0.0
Setting atom values ...
  160 settings made for x
  160 settings made for y
  160 settings made for z
change_box all     x final 0 10.131096132899142 y final 0 12.408008030343343 z final 0 33.70925860051751      xy final -10.131096132899142 xz final 0.0 yz final 0.0 units box
Changing box ...
  triclinic box = (0 0 0) to (10.131096 12.407558 33.708036) with tilt (-10.130729 0 0)
  triclinic box = (0 0 0) to (10.131096 12.408008 33.708036) with tilt (-10.130729 0 0)
  triclinic box = (0 0 0) to (10.131096 12.408008 33.709259) with tilt (-10.130729 0 0)
  triclinic box = (0 0 0) to (10.131096 12.408008 33.709259) with tilt (-10.131096 0 0)
  triclinic box = (0 0 0) to (10.131096 12.408008 33.709259) with tilt (-10.131096 0 0)
  triclinic box = (0 0 0) to (10.131096 12.408008 33.709259) with tilt (-10.131096 0 0)
echo none
run 0
Per MPI rank memory allocation (min/avg/max) = 3.393 | 3.393 | 3.393 Mbytes
    PotEng          Pxx           E_mol          E_coul    
-539.37821     -1029.3668      0              0            
Loop time of 1.042e-06 on 1 procs for 0 steps with 160 atoms

0.0% CPU use with 1 MPI tasks x no OpenMP threads

MPI task timing breakdown:
Section |  min time  |  avg time  |  max time  |%varavg| %total
---------------------------------------------------------------
Pair    | 0          | 0          | 0          |   0.0 |  0.00
Neigh   | 0          | 0          | 0          |   0.0 |  0.00
Comm    | 0          | 0          | 0          |   0.0 |  0.00
Output  | 0          | 0          | 0          |   0.0 |  0.00
Modify  | 0          | 0          | 0          |   0.0 |  0.00
Other   |            | 1.042e-06  |            |       |100.00

Nlocal:            160 ave         160 max         160 min
Histogram: 1 0 0 0 0 0 0 0 0 0
Nghost:            864 ave         864 max         864 min
Histogram: 1 0 0 0 0 0 0 0 0 0
Neighs:          11136 ave       11136 max       11136 min
Histogram: 1 0 0 0 0 0 0 0 0 0

Total # of neighbors = 11136
Ave neighs/atom = 69.6
Neighbor list builds = 0
Dangerous builds = 0
set atom * x 0.0 y 0.0 z 0.0
Setting atom values ...
  160 settings made for x
  160 settings made for y
  160 settings made for z
change_box all     x final 0 10.131096132899142 y final 0 12.408008030343343 z final 0 33.70925860051751      xy final -10.131096132899142 xz final 0.0 yz final 0.0 units box
Changing box ...
  triclinic box = (0 0 0) to (10.131096 12.408008 33.709259) with tilt (-10.131096 0 0)
  triclinic box = (0 0 0) to (10.131096 12.408008 33.709259) with tilt (-10.131096 0 0)
  triclinic box = (0 0 0) to (10.131096 12.408008 33.709259) with tilt (-10.131096 0 0)
  triclinic box = (0 0 0) to (10.131096 12.408008 33.709259) with tilt (-10.131096 0 0)
  triclinic box = (0 0 0) to (10.131096 12.408008 33.709259) with tilt (-10.131096 0 0)
  triclinic box = (0 0 0) to (10.131096 12.408008 33.709259) with tilt (-10.131096 0 0)
echo none
run 0
Per MPI rank memory allocation (min/avg/max) = 3.393 | 3.393 | 3.393 Mbytes
    PotEng          Pxx           E_mol          E_coul    
-539.37821     -1029.3668      0              0            
Loop time of 2.208e-06 on 1 procs for 0 steps with 160 atoms

271.7% CPU use with 1 MPI tasks x no OpenMP threads

MPI task timing breakdown:
Section |  min time  |  avg time  |  max time  |%varavg| %total
---------------------------------------------------------------
Pair    | 0          | 0          | 0          |   0.0 |  0.00
Neigh   | 0          | 0          | 0          |   0.0 |  0.00
Comm    | 0          | 0          | 0          |   0.0 |  0.00
Output  | 0          | 0          | 0          |   0.0 |  0.00
Modify  | 0          | 0          | 0          |   0.0 |  0.00
Other   |            | 2.208e-06  |            |       |100.00

Nlocal:            160 ave         160 max         160 min
Histogram: 1 0 0 0 0 0 0 0 0 0
Nghost:            864 ave         864 max         864 min
Histogram: 1 0 0 0 0 0 0 0 0 0
Neighs:          11136 ave       11136 max       11136 min
Histogram: 1 0 0 0 0 0 0 0 0 0

Total # of neighbors = 11136
Ave neighs/atom = 69.6
Neighbor list builds = 0
Dangerous builds = 0
set atom * x 0.0 y 0.0 z 0.0
Setting atom values ...
  160 settings made for x
  160 settings made for y
  160 settings made for z
change_box all     x final 0 10.130345919006237 y final 0 12.407089209725553 z final 0 33.70676240920811      xy final -10.130345919006237 xz final 0.0 yz final 0.0 units box
Changing box ...
  triclinic box = (0 0 0) to (10.130346 12.408008 33.709259) with tilt (-10.131096 0 0)
  triclinic box = (0 0 0) to (10.130346 12.407089 33.709259) with tilt (-10.131096 0 0)
  triclinic box = (0 0 0) to (10.130346 12.407089 33.706762) with tilt (-10.131096 0 0)
  triclinic box = (0 0 0) to (10.130346 12.407089 33.706762) with tilt (-10.130346 0 0)
  triclinic box = (0 0 0) to (10.130346 12.407089 33.706762) with tilt (-10.130346 0 0)
  triclinic box = (0 0 0) to (10.130346 12.407089 33.706762) with tilt (-10.130346 0 0)
echo none
run 0
Per MPI rank memory allocation (min/avg/max) = 3.393 | 3.393 | 3.393 Mbytes
    PotEng          Pxx           E_mol          E_coul    
-539.38007     -1071.5077      0              0            
Loop time of 5.84e-07 on 1 procs for 0 steps with 160 atoms

171.2% CPU use with 1 MPI tasks x no OpenMP threads

MPI task timing breakdown:
Section |  min time  |  avg time  |  max time  |%varavg| %total
---------------------------------------------------------------
Pair    | 0          | 0          | 0          |   0.0 |  0.00
Neigh   | 0          | 0          | 0          |   0.0 |  0.00
Comm    | 0          | 0          | 0          |   0.0 |  0.00
Output  | 0          | 0          | 0          |   0.0 |  0.00
Modify  | 0          | 0          | 0          |   0.0 |  0.00
Other   |            | 5.84e-07   |            |       |100.00

Nlocal:            160 ave         160 max         160 min
Histogram: 1 0 0 0 0 0 0 0 0 0
Nghost:            864 ave         864 max         864 min
Histogram: 1 0 0 0 0 0 0 0 0 0
Neighs:          11136 ave       11136 max       11136 min
Histogram: 1 0 0 0 0 0 0 0 0 0

Total # of neighbors = 11136
Ave neighs/atom = 69.6
Neighbor list builds = 0
Dangerous builds = 0
set atom * x 0.0 y 0.0 z 0.0
Setting atom values ...
  160 settings made for x
  160 settings made for y
  160 settings made for z
change_box all     x final 0 10.128066702984327 y final 0 12.40429775159191 z final 0 33.699178759691705      xy final -10.128066702984327 xz final 0.0 yz final 0.0 units box
Changing box ...
  triclinic box = (0 0 0) to (10.128067 12.407089 33.706762) with tilt (-10.130346 0 0)
  triclinic box = (0 0 0) to (10.128067 12.404298 33.706762) with tilt (-10.130346 0 0)
  triclinic box = (0 0 0) to (10.128067 12.404298 33.699179) with tilt (-10.130346 0 0)
  triclinic box = (0 0 0) to (10.128067 12.404298 33.699179) with tilt (-10.128067 0 0)
  triclinic box = (0 0 0) to (10.128067 12.404298 33.699179) with tilt (-10.128067 0 0)
  triclinic box = (0 0 0) to (10.128067 12.404298 33.699179) with tilt (-10.128067 0 0)
echo none
run 0
Per MPI rank memory allocation (min/avg/max) = 3.393 | 3.393 | 3.393 Mbytes
    PotEng          Pxx           E_mol          E_coul    
-539.38246     -1193.3331      0              0            
Loop time of 7.5e-07 on 1 procs for 0 steps with 160 atoms

400.0% CPU use with 1 MPI tasks x no OpenMP threads

MPI task timing breakdown:
Section |  min time  |  avg time  |  max time  |%varavg| %total
---------------------------------------------------------------
Pair    | 0          | 0          | 0          |   0.0 |  0.00
Neigh   | 0          | 0          | 0          |   0.0 |  0.00
Comm    | 0          | 0          | 0          |   0.0 |  0.00
Output  | 0          | 0          | 0          |   0.0 |  0.00
Modify  | 0          | 0          | 0          |   0.0 |  0.00
Other   |            | 7.5e-07    |            |       |100.00

Nlocal:            160 ave         160 max         160 min
Histogram: 1 0 0 0 0 0 0 0 0 0
Nghost:            864 ave         864 max         864 min
Histogram: 1 0 0 0 0 0 0 0 0 0
Neighs:          11104 ave       11104 max       11104 min
Histogram: 1 0 0 0 0 0 0 0 0 0

Total # of neighbors = 11104
Ave neighs/atom = 69.4
Neighbor list builds = 0
Dangerous builds = 0
set atom * x 0.0 y 0.0 z 0.0
Setting atom values ...
  160 settings made for x
  160 settings made for y
  160 settings made for z
change_box all     x final 0 10.128066702984327 y final 0 12.40429775159191 z final 0 33.699178759691705      xy final -10.128066702984327 xz final 0.0 yz final 0.0 units box
Changing box ...
  triclinic box = (0 0 0) to (10.128067 12.404298 33.699179) with tilt (-10.128067 0 0)
  triclinic box = (0 0 0) to (10.128067 12.404298 33.699179) with tilt (-10.128067 0 0)
  triclinic box = (0 0 0) to (10.128067 12.404298 33.699179) with tilt (-10.128067 0 0)
  triclinic box = (0 0 0) to (10.128067 12.404298 33.699179) with tilt (-10.128067 0 0)
  triclinic box = (0 0 0) to (10.128067 12.404298 33.699179) with tilt (-10.128067 0 0)
  triclinic box = (0 0 0) to (10.128067 12.404298 33.699179) with tilt (-10.128067 0 0)
echo none
run 0
Per MPI rank memory allocation (min/avg/max) = 3.393 | 3.393 | 3.393 Mbytes
    PotEng          Pxx           E_mol          E_coul    
-539.38246     -1193.3331      0              0            
Loop time of 1.125e-06 on 1 procs for 0 steps with 160 atoms

177.8% CPU use with 1 MPI tasks x no OpenMP threads

MPI task timing breakdown:
Section |  min time  |  avg time  |  max time  |%varavg| %total
---------------------------------------------------------------
Pair    | 0          | 0          | 0          |   0.0 |  0.00
Neigh   | 0          | 0          | 0          |   0.0 |  0.00
Comm    | 0          | 0          | 0          |   0.0 |  0.00
Output  | 0          | 0          | 0          |   0.0 |  0.00
Modify  | 0          | 0          | 0          |   0.0 |  0.00
Other   |            | 1.125e-06  |            |       |100.00

Nlocal:            160 ave         160 max         160 min
Histogram: 1 0 0 0 0 0 0 0 0 0
Nghost:            864 ave         864 max         864 min
Histogram: 1 0 0 0 0 0 0 0 0 0
Neighs:          11104 ave       11104 max       11104 min
Histogram: 1 0 0 0 0 0 0 0 0 0

Total # of neighbors = 11104
Ave neighs/atom = 69.4
Neighbor list builds = 0
Dangerous builds = 0
set atom * x 0.0 y 0.0 z 0.0
Setting atom values ...
  160 settings made for x
  160 settings made for y
  160 settings made for z
change_box all     x final 0 10.127577110722301 y final 0 12.403698125979917 z final 0 33.69754973634093      xy final -10.127577110722301 xz final 0.0 yz final 0.0 units box
Changing box ...
  triclinic box = (0 0 0) to (10.127577 12.404298 33.699179) with tilt (-10.128067 0 0)
  triclinic box = (0 0 0) to (10.127577 12.403698 33.699179) with tilt (-10.128067 0 0)
  triclinic box = (0 0 0) to (10.127577 12.403698 33.69755) with tilt (-10.128067 0 0)
  triclinic box = (0 0 0) to (10.127577 12.403698 33.69755) with tilt (-10.127577 0 0)
  triclinic box = (0 0 0) to (10.127577 12.403698 33.69755) with tilt (-10.127577 0 0)
  triclinic box = (0 0 0) to (10.127577 12.403698 33.69755) with tilt (-10.127577 0 0)
echo none
run 0
Per MPI rank memory allocation (min/avg/max) = 3.393 | 3.393 | 3.393 Mbytes
    PotEng          Pxx           E_mol          E_coul    
-539.38373     -1219.2785      0              0            
Loop time of 1.208e-06 on 1 procs for 0 steps with 160 atoms

82.8% CPU use with 1 MPI tasks x no OpenMP threads

MPI task timing breakdown:
Section |  min time  |  avg time  |  max time  |%varavg| %total
---------------------------------------------------------------
Pair    | 0          | 0          | 0          |   0.0 |  0.00
Neigh   | 0          | 0          | 0          |   0.0 |  0.00
Comm    | 0          | 0          | 0          |   0.0 |  0.00
Output  | 0          | 0          | 0          |   0.0 |  0.00
Modify  | 0          | 0          | 0          |   0.0 |  0.00
Other   |            | 1.208e-06  |            |       |100.00

Nlocal:            160 ave         160 max         160 min
Histogram: 1 0 0 0 0 0 0 0 0 0
Nghost:            864 ave         864 max         864 min
Histogram: 1 0 0 0 0 0 0 0 0 0
Neighs:          11040 ave       11040 max       11040 min
Histogram: 1 0 0 0 0 0 0 0 0 0

Total # of neighbors = 11040
Ave neighs/atom = 69
Neighbor list builds = 0
Dangerous builds = 0
set atom * x 0.0 y 0.0 z 0.0
Setting atom values ...
  160 settings made for x
  160 settings made for y
  160 settings made for z
change_box all     x final 0 10.127577110722301 y final 0 12.403698125979915 z final 0 33.69754973634093      xy final -10.127577110722301 xz final 0.0 yz final 0.0 units box
Changing box ...
  triclinic box = (0 0 0) to (10.127577 12.403698 33.69755) with tilt (-10.127577 0 0)
  triclinic box = (0 0 0) to (10.127577 12.403698 33.69755) with tilt (-10.127577 0 0)
  triclinic box = (0 0 0) to (10.127577 12.403698 33.69755) with tilt (-10.127577 0 0)
  triclinic box = (0 0 0) to (10.127577 12.403698 33.69755) with tilt (-10.127577 0 0)
  triclinic box = (0 0 0) to (10.127577 12.403698 33.69755) with tilt (-10.127577 0 0)
  triclinic box = (0 0 0) to (10.127577 12.403698 33.69755) with tilt (-10.127577 0 0)
echo none
run 0
Per MPI rank memory allocation (min/avg/max) = 3.393 | 3.393 | 3.393 Mbytes
    PotEng          Pxx           E_mol          E_coul    
-539.38373     -1219.2785      0              0            
Loop time of 1.125e-06 on 1 procs for 0 steps with 160 atoms

177.8% CPU use with 1 MPI tasks x no OpenMP threads

MPI task timing breakdown:
Section |  min time  |  avg time  |  max time  |%varavg| %total
---------------------------------------------------------------
Pair    | 0          | 0          | 0          |   0.0 |  0.00
Neigh   | 0          | 0          | 0          |   0.0 |  0.00
Comm    | 0          | 0          | 0          |   0.0 |  0.00
Output  | 0          | 0          | 0          |   0.0 |  0.00
Modify  | 0          | 0          | 0          |   0.0 |  0.00
Other   |            | 1.125e-06  |            |       |100.00

Nlocal:            160 ave         160 max         160 min
Histogram: 1 0 0 0 0 0 0 0 0 0
Nghost:            864 ave         864 max         864 min
Histogram: 1 0 0 0 0 0 0 0 0 0
Neighs:          11040 ave       11040 max       11040 min
Histogram: 1 0 0 0 0 0 0 0 0 0

Total # of neighbors = 11040
Ave neighs/atom = 69
Neighbor list builds = 0
Dangerous builds = 0
set atom * x 0.0 y 0.0 z 0.0
Setting atom values ...
  160 settings made for x
  160 settings made for y
  160 settings made for z
change_box all     x final 0 10.12790058725481 y final 0 12.404094302204118 z final 0 33.69862604180113      xy final -10.12790058725481 xz final 0.0 yz final 0.0 units box
Changing box ...
  triclinic box = (0 0 0) to (10.127901 12.403698 33.69755) with tilt (-10.127577 0 0)
  triclinic box = (0 0 0) to (10.127901 12.404094 33.69755) with tilt (-10.127577 0 0)
  triclinic box = (0 0 0) to (10.127901 12.404094 33.698626) with tilt (-10.127577 0 0)
  triclinic box = (0 0 0) to (10.127901 12.404094 33.698626) with tilt (-10.127901 0 0)
  triclinic box = (0 0 0) to (10.127901 12.404094 33.698626) with tilt (-10.127901 0 0)
  triclinic box = (0 0 0) to (10.127901 12.404094 33.698626) with tilt (-10.127901 0 0)
echo none
run 0
Per MPI rank memory allocation (min/avg/max) = 3.393 | 3.393 | 3.393 Mbytes
    PotEng          Pxx           E_mol          E_coul    
-539.38432     -1284.7382      0              0            
Loop time of 1e-06 on 1 procs for 0 steps with 160 atoms

0.0% CPU use with 1 MPI tasks x no OpenMP threads

MPI task timing breakdown:
Section |  min time  |  avg time  |  max time  |%varavg| %total
---------------------------------------------------------------
Pair    | 0          | 0          | 0          |   0.0 |  0.00
Neigh   | 0          | 0          | 0          |   0.0 |  0.00
Comm    | 0          | 0          | 0          |   0.0 |  0.00
Output  | 0          | 0          | 0          |   0.0 |  0.00
Modify  | 0          | 0          | 0          |   0.0 |  0.00
Other   |            | 1e-06      |            |       |100.00

Nlocal:            160 ave         160 max         160 min
Histogram: 1 0 0 0 0 0 0 0 0 0
Nghost:            864 ave         864 max         864 min
Histogram: 1 0 0 0 0 0 0 0 0 0
Neighs:          11040 ave       11040 max       11040 min
Histogram: 1 0 0 0 0 0 0 0 0 0

Total # of neighbors = 11040
Ave neighs/atom = 69
Neighbor list builds = 0
Dangerous builds = 0
Total wall time: 0:00:12
