LAMMPS (23 Jun 2022 - Update 4)
units metal
atom_style atomic
atom_modify map array sort 0 0
boundary p p p
box tilt large
region cell prism    0 3.164 0 3.164 0 3.164     0.0 0.0 0.0     units box
create_box 1 cell
Created triclinic box = (0 0 0) to (3.164 3.164 3.164) with tilt (0 0 0)
  1 by 1 by 1 MPI processor grid
echo none
Created 2 atoms
  using lattice units in triclinic box = (0 0 0) to (3.164 3.164 3.164) with tilt (0 0 0)
  create_atoms CPU = 0.000 seconds
Setting atom values ...
  1 settings made for type
Setting atom values ...
  1 settings made for type
pair_style eam/alloy
pair_coeff * * potentials/Mo.eam.alloy Mo
Reading eam/alloy potential file potentials/Mo.eam.alloy with DATE: 2018-03-30
mass 1 95.949999975317410871866741217673
variable pxx equal pxx
variable pyy equal pyy
variable pzz equal pzz
variable pxy equal pxy
variable pxz equal pxz
variable pyz equal pyz
thermo_style custom pe pxx emol ecoul
variable fx atom fx
variable fy atom fy
variable fz atom fz
variable pe equal pe
neigh_modify delay 0 every 1 check yes
echo none
run 0
WARNING: No fixes with time integration, atoms won't move (src/src/verlet.cpp:60)
Neighbor list info ...
  update every 1 steps, delay 0 steps, check yes
  max neighbors/atom: 2000, page size: 100000
  master list distance cutoff = 8.100217
  ghost atom cutoff = 8.100217
  binsize = 4.0501085, bins = 1 1 1
  1 neighbor lists, perpetual/occasional/extra = 1 0 0
  (1) pair eam/alloy, perpetual
      attributes: half, newton on
      pair build: half/bin/newton/tri
      stencil: half/bin/3d/tri
      bin: standard
Per MPI rank memory allocation (min/avg/max) = 3.244 | 3.244 | 3.244 Mbytes
    PotEng          Pxx           E_mol          E_coul    
-13.615608     -33565.043      0              0            
Loop time of 9.58e-07 on 1 procs for 0 steps with 2 atoms

313.2% CPU use with 1 MPI tasks x no OpenMP threads

MPI task timing breakdown:
Section |  min time  |  avg time  |  max time  |%varavg| %total
---------------------------------------------------------------
Pair    | 0          | 0          | 0          |   0.0 |  0.00
Neigh   | 0          | 0          | 0          |   0.0 |  0.00
Comm    | 0          | 0          | 0          |   0.0 |  0.00
Output  | 0          | 0          | 0          |   0.0 |  0.00
Modify  | 0          | 0          | 0          |   0.0 |  0.00
Other   |            | 9.58e-07   |            |       |100.00

Nlocal:              2 ave           2 max           2 min
Histogram: 1 0 0 0 0 0 0 0 0 0
Nghost:            557 ave         557 max         557 min
Histogram: 1 0 0 0 0 0 0 0 0 0
Neighs:            136 ave         136 max         136 min
Histogram: 1 0 0 0 0 0 0 0 0 0

Total # of neighbors = 136
Ave neighs/atom = 68
Neighbor list builds = 0
Dangerous builds = 0
set atom * x 0.0 y 0.0 z 0.0
Setting atom values ...
  2 settings made for x
  2 settings made for y
  2 settings made for z
change_box all     x final 0 2.96086106587977 y final 0 2.96086106587977 z final 0 2.96086106587977      xy final 0.0 xz final 0.0 yz final 0.0 units box
Changing box ...
  triclinic box = (0 0 0) to (2.9608611 3.164 3.164) with tilt (0 0 0)
  triclinic box = (0 0 0) to (2.9608611 2.9608611 3.164) with tilt (0 0 0)
  triclinic box = (0 0 0) to (2.9608611 2.9608611 2.9608611) with tilt (0 0 0)
  triclinic box = (0 0 0) to (2.9608611 2.9608611 2.9608611) with tilt (0 0 0)
  triclinic box = (0 0 0) to (2.9608611 2.9608611 2.9608611) with tilt (0 0 0)
  triclinic box = (0 0 0) to (2.9608611 2.9608611 2.9608611) with tilt (0 0 0)
echo none
run 0
WARNING: No fixes with time integration, atoms won't move (src/src/verlet.cpp:60)
Per MPI rank memory allocation (min/avg/max) = 3.244 | 3.244 | 3.244 Mbytes
    PotEng          Pxx           E_mol          E_coul    
-12.617219      685444.34      0              0            
Loop time of 9.58e-07 on 1 procs for 0 steps with 2 atoms

104.4% CPU use with 1 MPI tasks x no OpenMP threads

MPI task timing breakdown:
Section |  min time  |  avg time  |  max time  |%varavg| %total
---------------------------------------------------------------
Pair    | 0          | 0          | 0          |   0.0 |  0.00
Neigh   | 0          | 0          | 0          |   0.0 |  0.00
Comm    | 0          | 0          | 0          |   0.0 |  0.00
Output  | 0          | 0          | 0          |   0.0 |  0.00
Modify  | 0          | 0          | 0          |   0.0 |  0.00
Other   |            | 9.58e-07   |            |       |100.00

Nlocal:              2 ave           2 max           2 min
Histogram: 1 0 0 0 0 0 0 0 0 0
Nghost:            557 ave         557 max         557 min
Histogram: 1 0 0 0 0 0 0 0 0 0
Neighs:            168 ave         168 max         168 min
Histogram: 1 0 0 0 0 0 0 0 0 0

Total # of neighbors = 168
Ave neighs/atom = 84
Neighbor list builds = 0
Dangerous builds = 0
set atom * x 0.0 y 0.0 z 0.0
Setting atom values ...
  2 settings made for x
  2 settings made for y
  2 settings made for z
change_box all     x final 0 3.151328583480051 y final 0 3.151328583480051 z final 0 3.151328583480051      xy final 0.0 xz final 0.0 yz final 0.0 units box
Changing box ...
  triclinic box = (0 0 0) to (3.1513286 2.9608611 2.9608611) with tilt (0 0 0)
  triclinic box = (0 0 0) to (3.1513286 3.1513286 2.9608611) with tilt (0 0 0)
  triclinic box = (0 0 0) to (3.1513286 3.1513286 3.1513286) with tilt (0 0 0)
  triclinic box = (0 0 0) to (3.1513286 3.1513286 3.1513286) with tilt (0 0 0)
  triclinic box = (0 0 0) to (3.1513286 3.1513286 3.1513286) with tilt (0 0 0)
  triclinic box = (0 0 0) to (3.1513286 3.1513286 3.1513286) with tilt (0 0 0)
echo none
run 0
WARNING: No fixes with time integration, atoms won't move (src/src/verlet.cpp:60)
Per MPI rank memory allocation (min/avg/max) = 3.244 | 3.244 | 3.244 Mbytes
    PotEng          Pxx           E_mol          E_coul    
-13.619974     -2975.1297      0              0            
Loop time of 8.75e-07 on 1 procs for 0 steps with 2 atoms

0.0% CPU use with 1 MPI tasks x no OpenMP threads

MPI task timing breakdown:
Section |  min time  |  avg time  |  max time  |%varavg| %total
---------------------------------------------------------------
Pair    | 0          | 0          | 0          |   0.0 |  0.00
Neigh   | 0          | 0          | 0          |   0.0 |  0.00
Comm    | 0          | 0          | 0          |   0.0 |  0.00
Output  | 0          | 0          | 0          |   0.0 |  0.00
Modify  | 0          | 0          | 0          |   0.0 |  0.00
Other   |            | 8.75e-07   |            |       |100.00

Nlocal:              2 ave           2 max           2 min
Histogram: 1 0 0 0 0 0 0 0 0 0
Nghost:            557 ave         557 max         557 min
Histogram: 1 0 0 0 0 0 0 0 0 0
Neighs:            136 ave         136 max         136 min
Histogram: 1 0 0 0 0 0 0 0 0 0

Total # of neighbors = 136
Ave neighs/atom = 68
Neighbor list builds = 0
Dangerous builds = 0
set atom * x 0.0 y 0.0 z 0.0
Setting atom values ...
  2 settings made for x
  2 settings made for y
  2 settings made for z
change_box all     x final 0 3.1501150158299804 y final 0 3.1501150158299804 z final 0 3.1501150158299804      xy final 0.0 xz final 0.0 yz final 0.0 units box
Changing box ...
  triclinic box = (0 0 0) to (3.150115 3.1513286 3.1513286) with tilt (0 0 0)
  triclinic box = (0 0 0) to (3.150115 3.150115 3.1513286) with tilt (0 0 0)
  triclinic box = (0 0 0) to (3.150115 3.150115 3.150115) with tilt (0 0 0)
  triclinic box = (0 0 0) to (3.150115 3.150115 3.150115) with tilt (0 0 0)
  triclinic box = (0 0 0) to (3.150115 3.150115 3.150115) with tilt (0 0 0)
  triclinic box = (0 0 0) to (3.150115 3.150115 3.150115) with tilt (0 0 0)
echo none
run 0
WARNING: No fixes with time integration, atoms won't move (src/src/verlet.cpp:60)
Per MPI rank memory allocation (min/avg/max) = 3.244 | 3.244 | 3.244 Mbytes
    PotEng          Pxx           E_mol          E_coul    
-13.620007      58.337813      0              0            
Loop time of 1.292e-06 on 1 procs for 0 steps with 2 atoms

154.8% CPU use with 1 MPI tasks x no OpenMP threads

MPI task timing breakdown:
Section |  min time  |  avg time  |  max time  |%varavg| %total
---------------------------------------------------------------
Pair    | 0          | 0          | 0          |   0.0 |  0.00
Neigh   | 0          | 0          | 0          |   0.0 |  0.00
Comm    | 0          | 0          | 0          |   0.0 |  0.00
Output  | 0          | 0          | 0          |   0.0 |  0.00
Modify  | 0          | 0          | 0          |   0.0 |  0.00
Other   |            | 1.292e-06  |            |       |100.00

Nlocal:              2 ave           2 max           2 min
Histogram: 1 0 0 0 0 0 0 0 0 0
Nghost:            557 ave         557 max         557 min
Histogram: 1 0 0 0 0 0 0 0 0 0
Neighs:            136 ave         136 max         136 min
Histogram: 1 0 0 0 0 0 0 0 0 0

Total # of neighbors = 136
Ave neighs/atom = 68
Neighbor list builds = 0
Dangerous builds = 0
set atom * x 0.0 y 0.0 z 0.0
Setting atom values ...
  2 settings made for x
  2 settings made for y
  2 settings made for z
change_box all     x final 0 2.8351035142469825 y final 0 2.8351035142469825 z final 0 2.8351035142469825      xy final 0.0 xz final 0.0 yz final 0.0 units box
Changing box ...
  triclinic box = (0 0 0) to (2.8351035 3.150115 3.150115) with tilt (0 0 0)
  triclinic box = (0 0 0) to (2.8351035 2.8351035 3.150115) with tilt (0 0 0)
  triclinic box = (0 0 0) to (2.8351035 2.8351035 2.8351035) with tilt (0 0 0)
  triclinic box = (0 0 0) to (2.8351035 2.8351035 2.8351035) with tilt (0 0 0)
  triclinic box = (0 0 0) to (2.8351035 2.8351035 2.8351035) with tilt (0 0 0)
  triclinic box = (0 0 0) to (2.8351035 2.8351035 2.8351035) with tilt (0 0 0)
echo none
run 0
WARNING: No fixes with time integration, atoms won't move (src/src/verlet.cpp:60)
Per MPI rank memory allocation (min/avg/max) = 3.244 | 3.244 | 3.244 Mbytes
    PotEng          Pxx           E_mol          E_coul    
-10.599956      1416214.7      0              0            
Loop time of 6.25e-07 on 1 procs for 0 steps with 2 atoms

160.0% CPU use with 1 MPI tasks x no OpenMP threads

MPI task timing breakdown:
Section |  min time  |  avg time  |  max time  |%varavg| %total
---------------------------------------------------------------
Pair    | 0          | 0          | 0          |   0.0 |  0.00
Neigh   | 0          | 0          | 0          |   0.0 |  0.00
Comm    | 0          | 0          | 0          |   0.0 |  0.00
Output  | 0          | 0          | 0          |   0.0 |  0.00
Modify  | 0          | 0          | 0          |   0.0 |  0.00
Other   |            | 6.25e-07   |            |       |100.00

Nlocal:              2 ave           2 max           2 min
Histogram: 1 0 0 0 0 0 0 0 0 0
Nghost:            557 ave         557 max         557 min
Histogram: 1 0 0 0 0 0 0 0 0 0
Neighs:            180 ave         180 max         180 min
Histogram: 1 0 0 0 0 0 0 0 0 0

Total # of neighbors = 180
Ave neighs/atom = 90
Neighbor list builds = 0
Dangerous builds = 0
set atom * x 0.0 y 0.0 z 0.0
Setting atom values ...
  2 settings made for x
  2 settings made for y
  2 settings made for z
change_box all     x final 0 2.8666046644052825 y final 0 2.8666046644052825 z final 0 2.8666046644052825      xy final 0.0 xz final 0.0 yz final 0.0 units box
Changing box ...
  triclinic box = (0 0 0) to (2.8666047 2.8351035 2.8351035) with tilt (0 0 0)
  triclinic box = (0 0 0) to (2.8666047 2.8666047 2.8351035) with tilt (0 0 0)
  triclinic box = (0 0 0) to (2.8666047 2.8666047 2.8666047) with tilt (0 0 0)
  triclinic box = (0 0 0) to (2.8666047 2.8666047 2.8666047) with tilt (0 0 0)
  triclinic box = (0 0 0) to (2.8666047 2.8666047 2.8666047) with tilt (0 0 0)
  triclinic box = (0 0 0) to (2.8666047 2.8666047 2.8666047) with tilt (0 0 0)
echo none
run 0
WARNING: No fixes with time integration, atoms won't move (src/src/verlet.cpp:60)
Per MPI rank memory allocation (min/avg/max) = 3.244 | 3.244 | 3.244 Mbytes
    PotEng          Pxx           E_mol          E_coul    
-11.22657       1202765.5      0              0            
Loop time of 1.041e-06 on 1 procs for 0 steps with 2 atoms

96.1% CPU use with 1 MPI tasks x no OpenMP threads

MPI task timing breakdown:
Section |  min time  |  avg time  |  max time  |%varavg| %total
---------------------------------------------------------------
Pair    | 0          | 0          | 0          |   0.0 |  0.00
Neigh   | 0          | 0          | 0          |   0.0 |  0.00
Comm    | 0          | 0          | 0          |   0.0 |  0.00
Output  | 0          | 0          | 0          |   0.0 |  0.00
Modify  | 0          | 0          | 0          |   0.0 |  0.00
Other   |            | 1.041e-06  |            |       |100.00

Nlocal:              2 ave           2 max           2 min
Histogram: 1 0 0 0 0 0 0 0 0 0
Nghost:            557 ave         557 max         557 min
Histogram: 1 0 0 0 0 0 0 0 0 0
Neighs:            168 ave         168 max         168 min
Histogram: 1 0 0 0 0 0 0 0 0 0

Total # of neighbors = 168
Ave neighs/atom = 84
Neighbor list builds = 0
Dangerous builds = 0
set atom * x 0.0 y 0.0 z 0.0
Setting atom values ...
  2 settings made for x
  2 settings made for y
  2 settings made for z
change_box all     x final 0 2.898105814563582 y final 0 2.898105814563582 z final 0 2.898105814563582      xy final 0.0 xz final 0.0 yz final 0.0 units box
Changing box ...
  triclinic box = (0 0 0) to (2.8981058 2.8666047 2.8666047) with tilt (0 0 0)
  triclinic box = (0 0 0) to (2.8981058 2.8981058 2.8666047) with tilt (0 0 0)
  triclinic box = (0 0 0) to (2.8981058 2.8981058 2.8981058) with tilt (0 0 0)
  triclinic box = (0 0 0) to (2.8981058 2.8981058 2.8981058) with tilt (0 0 0)
  triclinic box = (0 0 0) to (2.8981058 2.8981058 2.8981058) with tilt (0 0 0)
  triclinic box = (0 0 0) to (2.8981058 2.8981058 2.8981058) with tilt (0 0 0)
echo none
run 0
WARNING: No fixes with time integration, atoms won't move (src/src/verlet.cpp:60)
Per MPI rank memory allocation (min/avg/max) = 3.244 | 3.244 | 3.244 Mbytes
    PotEng          Pxx           E_mol          E_coul    
-11.768138      1011659.7      0              0            
Loop time of 1e-06 on 1 procs for 0 steps with 2 atoms

0.0% CPU use with 1 MPI tasks x no OpenMP threads

MPI task timing breakdown:
Section |  min time  |  avg time  |  max time  |%varavg| %total
---------------------------------------------------------------
Pair    | 0          | 0          | 0          |   0.0 |  0.00
Neigh   | 0          | 0          | 0          |   0.0 |  0.00
Comm    | 0          | 0          | 0          |   0.0 |  0.00
Output  | 0          | 0          | 0          |   0.0 |  0.00
Modify  | 0          | 0          | 0          |   0.0 |  0.00
Other   |            | 1e-06      |            |       |100.00

Nlocal:              2 ave           2 max           2 min
Histogram: 1 0 0 0 0 0 0 0 0 0
Nghost:            557 ave         557 max         557 min
Histogram: 1 0 0 0 0 0 0 0 0 0
Neighs:            168 ave         168 max         168 min
Histogram: 1 0 0 0 0 0 0 0 0 0

Total # of neighbors = 168
Ave neighs/atom = 84
Neighbor list builds = 0
Dangerous builds = 0
set atom * x 0.0 y 0.0 z 0.0
Setting atom values ...
  2 settings made for x
  2 settings made for y
  2 settings made for z
change_box all     x final 0 2.929606964721882 y final 0 2.929606964721882 z final 0 2.929606964721882      xy final 0.0 xz final 0.0 yz final 0.0 units box
Changing box ...
  triclinic box = (0 0 0) to (2.929607 2.8981058 2.8981058) with tilt (0 0 0)
  triclinic box = (0 0 0) to (2.929607 2.929607 2.8981058) with tilt (0 0 0)
  triclinic box = (0 0 0) to (2.929607 2.929607 2.929607) with tilt (0 0 0)
  triclinic box = (0 0 0) to (2.929607 2.929607 2.929607) with tilt (0 0 0)
  triclinic box = (0 0 0) to (2.929607 2.929607 2.929607) with tilt (0 0 0)
  triclinic box = (0 0 0) to (2.929607 2.929607 2.929607) with tilt (0 0 0)
echo none
run 0
WARNING: No fixes with time integration, atoms won't move (src/src/verlet.cpp:60)
Per MPI rank memory allocation (min/avg/max) = 3.244 | 3.244 | 3.244 Mbytes
    PotEng          Pxx           E_mol          E_coul    
-12.230854      839766.39      0              0            
Loop time of 1.084e-06 on 1 procs for 0 steps with 2 atoms

0.0% CPU use with 1 MPI tasks x no OpenMP threads

MPI task timing breakdown:
Section |  min time  |  avg time  |  max time  |%varavg| %total
---------------------------------------------------------------
Pair    | 0          | 0          | 0          |   0.0 |  0.00
Neigh   | 0          | 0          | 0          |   0.0 |  0.00
Comm    | 0          | 0          | 0          |   0.0 |  0.00
Output  | 0          | 0          | 0          |   0.0 |  0.00
Modify  | 0          | 0          | 0          |   0.0 |  0.00
Other   |            | 1.084e-06  |            |       |100.00

Nlocal:              2 ave           2 max           2 min
Histogram: 1 0 0 0 0 0 0 0 0 0
Nghost:            557 ave         557 max         557 min
Histogram: 1 0 0 0 0 0 0 0 0 0
Neighs:            168 ave         168 max         168 min
Histogram: 1 0 0 0 0 0 0 0 0 0

Total # of neighbors = 168
Ave neighs/atom = 84
Neighbor list builds = 0
Dangerous builds = 0
set atom * x 0.0 y 0.0 z 0.0
Setting atom values ...
  2 settings made for x
  2 settings made for y
  2 settings made for z
change_box all     x final 0 2.9611081148801817 y final 0 2.9611081148801817 z final 0 2.9611081148801817      xy final 0.0 xz final 0.0 yz final 0.0 units box
Changing box ...
  triclinic box = (0 0 0) to (2.9611081 2.929607 2.929607) with tilt (0 0 0)
  triclinic box = (0 0 0) to (2.9611081 2.9611081 2.929607) with tilt (0 0 0)
  triclinic box = (0 0 0) to (2.9611081 2.9611081 2.9611081) with tilt (0 0 0)
  triclinic box = (0 0 0) to (2.9611081 2.9611081 2.9611081) with tilt (0 0 0)
  triclinic box = (0 0 0) to (2.9611081 2.9611081 2.9611081) with tilt (0 0 0)
  triclinic box = (0 0 0) to (2.9611081 2.9611081 2.9611081) with tilt (0 0 0)
echo none
run 0
WARNING: No fixes with time integration, atoms won't move (src/src/verlet.cpp:60)
Per MPI rank memory allocation (min/avg/max) = 3.244 | 3.244 | 3.244 Mbytes
    PotEng          Pxx           E_mol          E_coul    
-12.619997      684282.37      0              0            
Loop time of 1.042e-06 on 1 procs for 0 steps with 2 atoms

96.0% CPU use with 1 MPI tasks x no OpenMP threads

MPI task timing breakdown:
Section |  min time  |  avg time  |  max time  |%varavg| %total
---------------------------------------------------------------
Pair    | 0          | 0          | 0          |   0.0 |  0.00
Neigh   | 0          | 0          | 0          |   0.0 |  0.00
Comm    | 0          | 0          | 0          |   0.0 |  0.00
Output  | 0          | 0          | 0          |   0.0 |  0.00
Modify  | 0          | 0          | 0          |   0.0 |  0.00
Other   |            | 1.042e-06  |            |       |100.00

Nlocal:              2 ave           2 max           2 min
Histogram: 1 0 0 0 0 0 0 0 0 0
Nghost:            557 ave         557 max         557 min
Histogram: 1 0 0 0 0 0 0 0 0 0
Neighs:            168 ave         168 max         168 min
Histogram: 1 0 0 0 0 0 0 0 0 0

Total # of neighbors = 168
Ave neighs/atom = 84
Neighbor list builds = 0
Dangerous builds = 0
set atom * x 0.0 y 0.0 z 0.0
Setting atom values ...
  2 settings made for x
  2 settings made for y
  2 settings made for z
change_box all     x final 0 2.9926092650384817 y final 0 2.9926092650384817 z final 0 2.9926092650384817      xy final 0.0 xz final 0.0 yz final 0.0 units box
Changing box ...
  triclinic box = (0 0 0) to (2.9926093 2.9611081 2.9611081) with tilt (0 0 0)
  triclinic box = (0 0 0) to (2.9926093 2.9926093 2.9611081) with tilt (0 0 0)
  triclinic box = (0 0 0) to (2.9926093 2.9926093 2.9926093) with tilt (0 0 0)
  triclinic box = (0 0 0) to (2.9926093 2.9926093 2.9926093) with tilt (0 0 0)
  triclinic box = (0 0 0) to (2.9926093 2.9926093 2.9926093) with tilt (0 0 0)
  triclinic box = (0 0 0) to (2.9926093 2.9926093 2.9926093) with tilt (0 0 0)
echo none
run 0
WARNING: No fixes with time integration, atoms won't move (src/src/verlet.cpp:60)
Per MPI rank memory allocation (min/avg/max) = 3.244 | 3.244 | 3.244 Mbytes
    PotEng          Pxx           E_mol          E_coul    
-12.940013      542850.77      0              0            
Loop time of 1.375e-06 on 1 procs for 0 steps with 2 atoms

145.5% CPU use with 1 MPI tasks x no OpenMP threads

MPI task timing breakdown:
Section |  min time  |  avg time  |  max time  |%varavg| %total
---------------------------------------------------------------
Pair    | 0          | 0          | 0          |   0.0 |  0.00
Neigh   | 0          | 0          | 0          |   0.0 |  0.00
Comm    | 0          | 0          | 0          |   0.0 |  0.00
Output  | 0          | 0          | 0          |   0.0 |  0.00
Modify  | 0          | 0          | 0          |   0.0 |  0.00
Other   |            | 1.375e-06  |            |       |100.00

Nlocal:              2 ave           2 max           2 min
Histogram: 1 0 0 0 0 0 0 0 0 0
Nghost:            557 ave         557 max         557 min
Histogram: 1 0 0 0 0 0 0 0 0 0
Neighs:            168 ave         168 max         168 min
Histogram: 1 0 0 0 0 0 0 0 0 0

Total # of neighbors = 168
Ave neighs/atom = 84
Neighbor list builds = 0
Dangerous builds = 0
set atom * x 0.0 y 0.0 z 0.0
Setting atom values ...
  2 settings made for x
  2 settings made for y
  2 settings made for z
change_box all     x final 0 3.0241104151967813 y final 0 3.0241104151967813 z final 0 3.0241104151967813      xy final 0.0 xz final 0.0 yz final 0.0 units box
Changing box ...
  triclinic box = (0 0 0) to (3.0241104 2.9926093 2.9926093) with tilt (0 0 0)
  triclinic box = (0 0 0) to (3.0241104 3.0241104 2.9926093) with tilt (0 0 0)
  triclinic box = (0 0 0) to (3.0241104 3.0241104 3.0241104) with tilt (0 0 0)
  triclinic box = (0 0 0) to (3.0241104 3.0241104 3.0241104) with tilt (0 0 0)
  triclinic box = (0 0 0) to (3.0241104 3.0241104 3.0241104) with tilt (0 0 0)
  triclinic box = (0 0 0) to (3.0241104 3.0241104 3.0241104) with tilt (0 0 0)
echo none
run 0
WARNING: No fixes with time integration, atoms won't move (src/src/verlet.cpp:60)
Per MPI rank memory allocation (min/avg/max) = 3.244 | 3.244 | 3.244 Mbytes
    PotEng          Pxx           E_mol          E_coul    
-13.194684      413645.35      0              0            
Loop time of 8.75e-07 on 1 procs for 0 steps with 2 atoms

0.0% CPU use with 1 MPI tasks x no OpenMP threads

MPI task timing breakdown:
Section |  min time  |  avg time  |  max time  |%varavg| %total
---------------------------------------------------------------
Pair    | 0          | 0          | 0          |   0.0 |  0.00
Neigh   | 0          | 0          | 0          |   0.0 |  0.00
Comm    | 0          | 0          | 0          |   0.0 |  0.00
Output  | 0          | 0          | 0          |   0.0 |  0.00
Modify  | 0          | 0          | 0          |   0.0 |  0.00
Other   |            | 8.75e-07   |            |       |100.00

Nlocal:              2 ave           2 max           2 min
Histogram: 1 0 0 0 0 0 0 0 0 0
Nghost:            557 ave         557 max         557 min
Histogram: 1 0 0 0 0 0 0 0 0 0
Neighs:            168 ave         168 max         168 min
Histogram: 1 0 0 0 0 0 0 0 0 0

Total # of neighbors = 168
Ave neighs/atom = 84
Neighbor list builds = 0
Dangerous builds = 0
set atom * x 0.0 y 0.0 z 0.0
Setting atom values ...
  2 settings made for x
  2 settings made for y
  2 settings made for z
change_box all     x final 0 3.0556115653550813 y final 0 3.0556115653550813 z final 0 3.0556115653550813      xy final 0.0 xz final 0.0 yz final 0.0 units box
Changing box ...
  triclinic box = (0 0 0) to (3.0556116 3.0241104 3.0241104) with tilt (0 0 0)
  triclinic box = (0 0 0) to (3.0556116 3.0556116 3.0241104) with tilt (0 0 0)
  triclinic box = (0 0 0) to (3.0556116 3.0556116 3.0556116) with tilt (0 0 0)
  triclinic box = (0 0 0) to (3.0556116 3.0556116 3.0556116) with tilt (0 0 0)
  triclinic box = (0 0 0) to (3.0556116 3.0556116 3.0556116) with tilt (0 0 0)
  triclinic box = (0 0 0) to (3.0556116 3.0556116 3.0556116) with tilt (0 0 0)
echo none
run 0
WARNING: No fixes with time integration, atoms won't move (src/src/verlet.cpp:60)
Per MPI rank memory allocation (min/avg/max) = 3.244 | 3.244 | 3.244 Mbytes
    PotEng          Pxx           E_mol          E_coul    
-13.387332      295390.11      0              0            
Loop time of 9.58e-07 on 1 procs for 0 steps with 2 atoms

0.0% CPU use with 1 MPI tasks x no OpenMP threads

MPI task timing breakdown:
Section |  min time  |  avg time  |  max time  |%varavg| %total
---------------------------------------------------------------
Pair    | 0          | 0          | 0          |   0.0 |  0.00
Neigh   | 0          | 0          | 0          |   0.0 |  0.00
Comm    | 0          | 0          | 0          |   0.0 |  0.00
Output  | 0          | 0          | 0          |   0.0 |  0.00
Modify  | 0          | 0          | 0          |   0.0 |  0.00
Other   |            | 9.58e-07   |            |       |100.00

Nlocal:              2 ave           2 max           2 min
Histogram: 1 0 0 0 0 0 0 0 0 0
Nghost:            557 ave         557 max         557 min
Histogram: 1 0 0 0 0 0 0 0 0 0
Neighs:            168 ave         168 max         168 min
Histogram: 1 0 0 0 0 0 0 0 0 0

Total # of neighbors = 168
Ave neighs/atom = 84
Neighbor list builds = 0
Dangerous builds = 0
set atom * x 0.0 y 0.0 z 0.0
Setting atom values ...
  2 settings made for x
  2 settings made for y
  2 settings made for z
change_box all     x final 0 3.0871127155133813 y final 0 3.0871127155133813 z final 0 3.0871127155133813      xy final 0.0 xz final 0.0 yz final 0.0 units box
Changing box ...
  triclinic box = (0 0 0) to (3.0871127 3.0556116 3.0556116) with tilt (0 0 0)
  triclinic box = (0 0 0) to (3.0871127 3.0871127 3.0556116) with tilt (0 0 0)
  triclinic box = (0 0 0) to (3.0871127 3.0871127 3.0871127) with tilt (0 0 0)
  triclinic box = (0 0 0) to (3.0871127 3.0871127 3.0871127) with tilt (0 0 0)
  triclinic box = (0 0 0) to (3.0871127 3.0871127 3.0871127) with tilt (0 0 0)
  triclinic box = (0 0 0) to (3.0871127 3.0871127 3.0871127) with tilt (0 0 0)
echo none
run 0
WARNING: No fixes with time integration, atoms won't move (src/src/verlet.cpp:60)
Per MPI rank memory allocation (min/avg/max) = 3.244 | 3.244 | 3.244 Mbytes
    PotEng          Pxx           E_mol          E_coul    
-13.520234      183958.48      0              0            
Loop time of 1e-06 on 1 procs for 0 steps with 2 atoms

100.0% CPU use with 1 MPI tasks x no OpenMP threads

MPI task timing breakdown:
Section |  min time  |  avg time  |  max time  |%varavg| %total
---------------------------------------------------------------
Pair    | 0          | 0          | 0          |   0.0 |  0.00
Neigh   | 0          | 0          | 0          |   0.0 |  0.00
Comm    | 0          | 0          | 0          |   0.0 |  0.00
Output  | 0          | 0          | 0          |   0.0 |  0.00
Modify  | 0          | 0          | 0          |   0.0 |  0.00
Other   |            | 1e-06      |            |       |100.00

Nlocal:              2 ave           2 max           2 min
Histogram: 1 0 0 0 0 0 0 0 0 0
Nghost:            557 ave         557 max         557 min
Histogram: 1 0 0 0 0 0 0 0 0 0
Neighs:            168 ave         168 max         168 min
Histogram: 1 0 0 0 0 0 0 0 0 0

Total # of neighbors = 168
Ave neighs/atom = 84
Neighbor list builds = 0
Dangerous builds = 0
set atom * x 0.0 y 0.0 z 0.0
Setting atom values ...
  2 settings made for x
  2 settings made for y
  2 settings made for z
change_box all     x final 0 3.118613865671681 y final 0 3.118613865671681 z final 0 3.118613865671681      xy final 0.0 xz final 0.0 yz final 0.0 units box
Changing box ...
  triclinic box = (0 0 0) to (3.1186139 3.0871127 3.0871127) with tilt (0 0 0)
  triclinic box = (0 0 0) to (3.1186139 3.1186139 3.0871127) with tilt (0 0 0)
  triclinic box = (0 0 0) to (3.1186139 3.1186139 3.1186139) with tilt (0 0 0)
  triclinic box = (0 0 0) to (3.1186139 3.1186139 3.1186139) with tilt (0 0 0)
  triclinic box = (0 0 0) to (3.1186139 3.1186139 3.1186139) with tilt (0 0 0)
  triclinic box = (0 0 0) to (3.1186139 3.1186139 3.1186139) with tilt (0 0 0)
echo none
run 0
WARNING: No fixes with time integration, atoms won't move (src/src/verlet.cpp:60)
Per MPI rank memory allocation (min/avg/max) = 3.244 | 3.244 | 3.244 Mbytes
    PotEng          Pxx           E_mol          E_coul    
-13.595958      85362.607      0              0            
Loop time of 1.042e-06 on 1 procs for 0 steps with 2 atoms

96.0% CPU use with 1 MPI tasks x no OpenMP threads

MPI task timing breakdown:
Section |  min time  |  avg time  |  max time  |%varavg| %total
---------------------------------------------------------------
Pair    | 0          | 0          | 0          |   0.0 |  0.00
Neigh   | 0          | 0          | 0          |   0.0 |  0.00
Comm    | 0          | 0          | 0          |   0.0 |  0.00
Output  | 0          | 0          | 0          |   0.0 |  0.00
Modify  | 0          | 0          | 0          |   0.0 |  0.00
Other   |            | 1.042e-06  |            |       |100.00

Nlocal:              2 ave           2 max           2 min
Histogram: 1 0 0 0 0 0 0 0 0 0
Nghost:            557 ave         557 max         557 min
Histogram: 1 0 0 0 0 0 0 0 0 0
Neighs:            136 ave         136 max         136 min
Histogram: 1 0 0 0 0 0 0 0 0 0

Total # of neighbors = 136
Ave neighs/atom = 68
Neighbor list builds = 0
Dangerous builds = 0
set atom * x 0.0 y 0.0 z 0.0
Setting atom values ...
  2 settings made for x
  2 settings made for y
  2 settings made for z
change_box all     x final 0 3.1501150158299804 y final 0 3.1501150158299804 z final 0 3.1501150158299804      xy final 0.0 xz final 0.0 yz final 0.0 units box
Changing box ...
  triclinic box = (0 0 0) to (3.150115 3.1186139 3.1186139) with tilt (0 0 0)
  triclinic box = (0 0 0) to (3.150115 3.150115 3.1186139) with tilt (0 0 0)
  triclinic box = (0 0 0) to (3.150115 3.150115 3.150115) with tilt (0 0 0)
  triclinic box = (0 0 0) to (3.150115 3.150115 3.150115) with tilt (0 0 0)
  triclinic box = (0 0 0) to (3.150115 3.150115 3.150115) with tilt (0 0 0)
  triclinic box = (0 0 0) to (3.150115 3.150115 3.150115) with tilt (0 0 0)
echo none
run 0
WARNING: No fixes with time integration, atoms won't move (src/src/verlet.cpp:60)
Per MPI rank memory allocation (min/avg/max) = 3.244 | 3.244 | 3.244 Mbytes
    PotEng          Pxx           E_mol          E_coul    
-13.620007      58.337813      0              0            
Loop time of 1.208e-06 on 1 procs for 0 steps with 2 atoms

0.0% CPU use with 1 MPI tasks x no OpenMP threads

MPI task timing breakdown:
Section |  min time  |  avg time  |  max time  |%varavg| %total
---------------------------------------------------------------
Pair    | 0          | 0          | 0          |   0.0 |  0.00
Neigh   | 0          | 0          | 0          |   0.0 |  0.00
Comm    | 0          | 0          | 0          |   0.0 |  0.00
Output  | 0          | 0          | 0          |   0.0 |  0.00
Modify  | 0          | 0          | 0          |   0.0 |  0.00
Other   |            | 1.208e-06  |            |       |100.00

Nlocal:              2 ave           2 max           2 min
Histogram: 1 0 0 0 0 0 0 0 0 0
Nghost:            557 ave         557 max         557 min
Histogram: 1 0 0 0 0 0 0 0 0 0
Neighs:            136 ave         136 max         136 min
Histogram: 1 0 0 0 0 0 0 0 0 0

Total # of neighbors = 136
Ave neighs/atom = 68
Neighbor list builds = 0
Dangerous builds = 0
set atom * x 0.0 y 0.0 z 0.0
Setting atom values ...
  2 settings made for x
  2 settings made for y
  2 settings made for z
change_box all     x final 0 3.181616165988281 y final 0 3.181616165988281 z final 0 3.181616165988281      xy final 0.0 xz final 0.0 yz final 0.0 units box
Changing box ...
  triclinic box = (0 0 0) to (3.1816162 3.150115 3.150115) with tilt (0 0 0)
  triclinic box = (0 0 0) to (3.1816162 3.1816162 3.150115) with tilt (0 0 0)
  triclinic box = (0 0 0) to (3.1816162 3.1816162 3.1816162) with tilt (0 0 0)
  triclinic box = (0 0 0) to (3.1816162 3.1816162 3.1816162) with tilt (0 0 0)
  triclinic box = (0 0 0) to (3.1816162 3.1816162 3.1816162) with tilt (0 0 0)
  triclinic box = (0 0 0) to (3.1816162 3.1816162 3.1816162) with tilt (0 0 0)
echo none
run 0
WARNING: No fixes with time integration, atoms won't move (src/src/verlet.cpp:60)
Per MPI rank memory allocation (min/avg/max) = 3.244 | 3.244 | 3.244 Mbytes
    PotEng          Pxx           E_mol          E_coul    
-13.597822     -72876.054      0              0            
Loop time of 1.125e-06 on 1 procs for 0 steps with 2 atoms

0.0% CPU use with 1 MPI tasks x no OpenMP threads

MPI task timing breakdown:
Section |  min time  |  avg time  |  max time  |%varavg| %total
---------------------------------------------------------------
Pair    | 0          | 0          | 0          |   0.0 |  0.00
Neigh   | 0          | 0          | 0          |   0.0 |  0.00
Comm    | 0          | 0          | 0          |   0.0 |  0.00
Output  | 0          | 0          | 0          |   0.0 |  0.00
Modify  | 0          | 0          | 0          |   0.0 |  0.00
Other   |            | 1.125e-06  |            |       |100.00

Nlocal:              2 ave           2 max           2 min
Histogram: 1 0 0 0 0 0 0 0 0 0
Nghost:            557 ave         557 max         557 min
Histogram: 1 0 0 0 0 0 0 0 0 0
Neighs:            136 ave         136 max         136 min
Histogram: 1 0 0 0 0 0 0 0 0 0

Total # of neighbors = 136
Ave neighs/atom = 68
Neighbor list builds = 0
Dangerous builds = 0
set atom * x 0.0 y 0.0 z 0.0
Setting atom values ...
  2 settings made for x
  2 settings made for y
  2 settings made for z
change_box all     x final 0 3.21311731614658 y final 0 3.21311731614658 z final 0 3.21311731614658      xy final 0.0 xz final 0.0 yz final 0.0 units box
Changing box ...
  triclinic box = (0 0 0) to (3.2131173 3.1816162 3.1816162) with tilt (0 0 0)
  triclinic box = (0 0 0) to (3.2131173 3.2131173 3.1816162) with tilt (0 0 0)
  triclinic box = (0 0 0) to (3.2131173 3.2131173 3.2131173) with tilt (0 0 0)
  triclinic box = (0 0 0) to (3.2131173 3.2131173 3.2131173) with tilt (0 0 0)
  triclinic box = (0 0 0) to (3.2131173 3.2131173 3.2131173) with tilt (0 0 0)
  triclinic box = (0 0 0) to (3.2131173 3.2131173 3.2131173) with tilt (0 0 0)
echo none
run 0
WARNING: No fixes with time integration, atoms won't move (src/src/verlet.cpp:60)
Per MPI rank memory allocation (min/avg/max) = 3.244 | 3.244 | 3.244 Mbytes
    PotEng          Pxx           E_mol          E_coul    
-13.534752     -134239.17      0              0            
Loop time of 1.208e-06 on 1 procs for 0 steps with 2 atoms

0.0% CPU use with 1 MPI tasks x no OpenMP threads

MPI task timing breakdown:
Section |  min time  |  avg time  |  max time  |%varavg| %total
---------------------------------------------------------------
Pair    | 0          | 0          | 0          |   0.0 |  0.00
Neigh   | 0          | 0          | 0          |   0.0 |  0.00
Comm    | 0          | 0          | 0          |   0.0 |  0.00
Output  | 0          | 0          | 0          |   0.0 |  0.00
Modify  | 0          | 0          | 0          |   0.0 |  0.00
Other   |            | 1.208e-06  |            |       |100.00

Nlocal:              2 ave           2 max           2 min
Histogram: 1 0 0 0 0 0 0 0 0 0
Nghost:            557 ave         557 max         557 min
Histogram: 1 0 0 0 0 0 0 0 0 0
Neighs:            136 ave         136 max         136 min
Histogram: 1 0 0 0 0 0 0 0 0 0

Total # of neighbors = 136
Ave neighs/atom = 68
Neighbor list builds = 0
Dangerous builds = 0
set atom * x 0.0 y 0.0 z 0.0
Setting atom values ...
  2 settings made for x
  2 settings made for y
  2 settings made for z
change_box all     x final 0 3.2446184663048805 y final 0 3.2446184663048805 z final 0 3.2446184663048805      xy final 0.0 xz final 0.0 yz final 0.0 units box
Changing box ...
  triclinic box = (0 0 0) to (3.2446185 3.2131173 3.2131173) with tilt (0 0 0)
  triclinic box = (0 0 0) to (3.2446185 3.2446185 3.2131173) with tilt (0 0 0)
  triclinic box = (0 0 0) to (3.2446185 3.2446185 3.2446185) with tilt (0 0 0)
  triclinic box = (0 0 0) to (3.2446185 3.2446185 3.2446185) with tilt (0 0 0)
  triclinic box = (0 0 0) to (3.2446185 3.2446185 3.2446185) with tilt (0 0 0)
  triclinic box = (0 0 0) to (3.2446185 3.2446185 3.2446185) with tilt (0 0 0)
echo none
run 0
WARNING: No fixes with time integration, atoms won't move (src/src/verlet.cpp:60)
Per MPI rank memory allocation (min/avg/max) = 3.244 | 3.244 | 3.244 Mbytes
    PotEng          Pxx           E_mol          E_coul    
-13.436075     -184747.9       0              0            
Loop time of 9.17e-07 on 1 procs for 0 steps with 2 atoms

109.1% CPU use with 1 MPI tasks x no OpenMP threads

MPI task timing breakdown:
Section |  min time  |  avg time  |  max time  |%varavg| %total
---------------------------------------------------------------
Pair    | 0          | 0          | 0          |   0.0 |  0.00
Neigh   | 0          | 0          | 0          |   0.0 |  0.00
Comm    | 0          | 0          | 0          |   0.0 |  0.00
Output  | 0          | 0          | 0          |   0.0 |  0.00
Modify  | 0          | 0          | 0          |   0.0 |  0.00
Other   |            | 9.17e-07   |            |       |100.00

Nlocal:              2 ave           2 max           2 min
Histogram: 1 0 0 0 0 0 0 0 0 0
Nghost:            339 ave         339 max         339 min
Histogram: 1 0 0 0 0 0 0 0 0 0
Neighs:            136 ave         136 max         136 min
Histogram: 1 0 0 0 0 0 0 0 0 0

Total # of neighbors = 136
Ave neighs/atom = 68
Neighbor list builds = 0
Dangerous builds = 0
set atom * x 0.0 y 0.0 z 0.0
Setting atom values ...
  2 settings made for x
  2 settings made for y
  2 settings made for z
change_box all     x final 0 3.2761196164631796 y final 0 3.2761196164631796 z final 0 3.2761196164631796      xy final 0.0 xz final 0.0 yz final 0.0 units box
Changing box ...
  triclinic box = (0 0 0) to (3.2761196 3.2446185 3.2446185) with tilt (0 0 0)
  triclinic box = (0 0 0) to (3.2761196 3.2761196 3.2446185) with tilt (0 0 0)
  triclinic box = (0 0 0) to (3.2761196 3.2761196 3.2761196) with tilt (0 0 0)
  triclinic box = (0 0 0) to (3.2761196 3.2761196 3.2761196) with tilt (0 0 0)
  triclinic box = (0 0 0) to (3.2761196 3.2761196 3.2761196) with tilt (0 0 0)
  triclinic box = (0 0 0) to (3.2761196 3.2761196 3.2761196) with tilt (0 0 0)
echo none
run 0
WARNING: No fixes with time integration, atoms won't move (src/src/verlet.cpp:60)
Per MPI rank memory allocation (min/avg/max) = 3.244 | 3.244 | 3.244 Mbytes
    PotEng          Pxx           E_mol          E_coul    
-13.305881     -230557         0              0            
Loop time of 1.084e-06 on 1 procs for 0 steps with 2 atoms

0.0% CPU use with 1 MPI tasks x no OpenMP threads

MPI task timing breakdown:
Section |  min time  |  avg time  |  max time  |%varavg| %total
---------------------------------------------------------------
Pair    | 0          | 0          | 0          |   0.0 |  0.00
Neigh   | 0          | 0          | 0          |   0.0 |  0.00
Comm    | 0          | 0          | 0          |   0.0 |  0.00
Output  | 0          | 0          | 0          |   0.0 |  0.00
Modify  | 0          | 0          | 0          |   0.0 |  0.00
Other   |            | 1.084e-06  |            |       |100.00

Nlocal:              2 ave           2 max           2 min
Histogram: 1 0 0 0 0 0 0 0 0 0
Nghost:            339 ave         339 max         339 min
Histogram: 1 0 0 0 0 0 0 0 0 0
Neighs:            136 ave         136 max         136 min
Histogram: 1 0 0 0 0 0 0 0 0 0

Total # of neighbors = 136
Ave neighs/atom = 68
Neighbor list builds = 0
Dangerous builds = 0
set atom * x 0.0 y 0.0 z 0.0
Setting atom values ...
  2 settings made for x
  2 settings made for y
  2 settings made for z
change_box all     x final 0 3.30762076662148 y final 0 3.30762076662148 z final 0 3.30762076662148      xy final 0.0 xz final 0.0 yz final 0.0 units box
Changing box ...
  triclinic box = (0 0 0) to (3.3076208 3.2761196 3.2761196) with tilt (0 0 0)
  triclinic box = (0 0 0) to (3.3076208 3.3076208 3.2761196) with tilt (0 0 0)
  triclinic box = (0 0 0) to (3.3076208 3.3076208 3.3076208) with tilt (0 0 0)
  triclinic box = (0 0 0) to (3.3076208 3.3076208 3.3076208) with tilt (0 0 0)
  triclinic box = (0 0 0) to (3.3076208 3.3076208 3.3076208) with tilt (0 0 0)
  triclinic box = (0 0 0) to (3.3076208 3.3076208 3.3076208) with tilt (0 0 0)
echo none
run 0
WARNING: No fixes with time integration, atoms won't move (src/src/verlet.cpp:60)
Per MPI rank memory allocation (min/avg/max) = 3.244 | 3.244 | 3.244 Mbytes
    PotEng          Pxx           E_mol          E_coul    
-13.143694     -276707         0              0            
Loop time of 1.125e-06 on 1 procs for 0 steps with 2 atoms

0.0% CPU use with 1 MPI tasks x no OpenMP threads

MPI task timing breakdown:
Section |  min time  |  avg time  |  max time  |%varavg| %total
---------------------------------------------------------------
Pair    | 0          | 0          | 0          |   0.0 |  0.00
Neigh   | 0          | 0          | 0          |   0.0 |  0.00
Comm    | 0          | 0          | 0          |   0.0 |  0.00
Output  | 0          | 0          | 0          |   0.0 |  0.00
Modify  | 0          | 0          | 0          |   0.0 |  0.00
Other   |            | 1.125e-06  |            |       |100.00

Nlocal:              2 ave           2 max           2 min
Histogram: 1 0 0 0 0 0 0 0 0 0
Nghost:            339 ave         339 max         339 min
Histogram: 1 0 0 0 0 0 0 0 0 0
Neighs:            112 ave         112 max         112 min
Histogram: 1 0 0 0 0 0 0 0 0 0

Total # of neighbors = 112
Ave neighs/atom = 56
Neighbor list builds = 0
Dangerous builds = 0
set atom * x 0.0 y 0.0 z 0.0
Setting atom values ...
  2 settings made for x
  2 settings made for y
  2 settings made for z
change_box all     x final 0 3.339121916779779 y final 0 3.339121916779779 z final 0 3.339121916779779      xy final 0.0 xz final 0.0 yz final 0.0 units box
Changing box ...
  triclinic box = (0 0 0) to (3.3391219 3.3076208 3.3076208) with tilt (0 0 0)
  triclinic box = (0 0 0) to (3.3391219 3.3391219 3.3076208) with tilt (0 0 0)
  triclinic box = (0 0 0) to (3.3391219 3.3391219 3.3391219) with tilt (0 0 0)
  triclinic box = (0 0 0) to (3.3391219 3.3391219 3.3391219) with tilt (0 0 0)
  triclinic box = (0 0 0) to (3.3391219 3.3391219 3.3391219) with tilt (0 0 0)
  triclinic box = (0 0 0) to (3.3391219 3.3391219 3.3391219) with tilt (0 0 0)
echo none
run 0
WARNING: No fixes with time integration, atoms won't move (src/src/verlet.cpp:60)
Per MPI rank memory allocation (min/avg/max) = 3.244 | 3.244 | 3.244 Mbytes
    PotEng          Pxx           E_mol          E_coul    
-12.94862      -321707.1       0              0            
Loop time of 9.16e-07 on 1 procs for 0 steps with 2 atoms

109.2% CPU use with 1 MPI tasks x no OpenMP threads

MPI task timing breakdown:
Section |  min time  |  avg time  |  max time  |%varavg| %total
---------------------------------------------------------------
Pair    | 0          | 0          | 0          |   0.0 |  0.00
Neigh   | 0          | 0          | 0          |   0.0 |  0.00
Comm    | 0          | 0          | 0          |   0.0 |  0.00
Output  | 0          | 0          | 0          |   0.0 |  0.00
Modify  | 0          | 0          | 0          |   0.0 |  0.00
Other   |            | 9.16e-07   |            |       |100.00

Nlocal:              2 ave           2 max           2 min
Histogram: 1 0 0 0 0 0 0 0 0 0
Nghost:            339 ave         339 max         339 min
Histogram: 1 0 0 0 0 0 0 0 0 0
Neighs:            112 ave         112 max         112 min
Histogram: 1 0 0 0 0 0 0 0 0 0

Total # of neighbors = 112
Ave neighs/atom = 56
Neighbor list builds = 0
Dangerous builds = 0
set atom * x 0.0 y 0.0 z 0.0
Setting atom values ...
  2 settings made for x
  2 settings made for y
  2 settings made for z
change_box all     x final 0 3.37062306693808 y final 0 3.37062306693808 z final 0 3.37062306693808      xy final 0.0 xz final 0.0 yz final 0.0 units box
Changing box ...
  triclinic box = (0 0 0) to (3.3706231 3.3391219 3.3391219) with tilt (0 0 0)
  triclinic box = (0 0 0) to (3.3706231 3.3706231 3.3391219) with tilt (0 0 0)
  triclinic box = (0 0 0) to (3.3706231 3.3706231 3.3706231) with tilt (0 0 0)
  triclinic box = (0 0 0) to (3.3706231 3.3706231 3.3706231) with tilt (0 0 0)
  triclinic box = (0 0 0) to (3.3706231 3.3706231 3.3706231) with tilt (0 0 0)
  triclinic box = (0 0 0) to (3.3706231 3.3706231 3.3706231) with tilt (0 0 0)
echo none
run 0
WARNING: No fixes with time integration, atoms won't move (src/src/verlet.cpp:60)
Per MPI rank memory allocation (min/avg/max) = 3.244 | 3.244 | 3.244 Mbytes
    PotEng          Pxx           E_mol          E_coul    
-12.720724     -364188.9       0              0            
Loop time of 1.041e-06 on 1 procs for 0 steps with 2 atoms

96.1% CPU use with 1 MPI tasks x no OpenMP threads

MPI task timing breakdown:
Section |  min time  |  avg time  |  max time  |%varavg| %total
---------------------------------------------------------------
Pair    | 0          | 0          | 0          |   0.0 |  0.00
Neigh   | 0          | 0          | 0          |   0.0 |  0.00
Comm    | 0          | 0          | 0          |   0.0 |  0.00
Output  | 0          | 0          | 0          |   0.0 |  0.00
Modify  | 0          | 0          | 0          |   0.0 |  0.00
Other   |            | 1.041e-06  |            |       |100.00

Nlocal:              2 ave           2 max           2 min
Histogram: 1 0 0 0 0 0 0 0 0 0
Nghost:            339 ave         339 max         339 min
Histogram: 1 0 0 0 0 0 0 0 0 0
Neighs:            112 ave         112 max         112 min
Histogram: 1 0 0 0 0 0 0 0 0 0

Total # of neighbors = 112
Ave neighs/atom = 56
Neighbor list builds = 0
Dangerous builds = 0
set atom * x 0.0 y 0.0 z 0.0
Setting atom values ...
  2 settings made for x
  2 settings made for y
  2 settings made for z
change_box all     x final 0 3.4021242170963792 y final 0 3.4021242170963792 z final 0 3.4021242170963792      xy final 0.0 xz final 0.0 yz final 0.0 units box
Changing box ...
  triclinic box = (0 0 0) to (3.4021242 3.3706231 3.3706231) with tilt (0 0 0)
  triclinic box = (0 0 0) to (3.4021242 3.4021242 3.3706231) with tilt (0 0 0)
  triclinic box = (0 0 0) to (3.4021242 3.4021242 3.4021242) with tilt (0 0 0)
  triclinic box = (0 0 0) to (3.4021242 3.4021242 3.4021242) with tilt (0 0 0)
  triclinic box = (0 0 0) to (3.4021242 3.4021242 3.4021242) with tilt (0 0 0)
  triclinic box = (0 0 0) to (3.4021242 3.4021242 3.4021242) with tilt (0 0 0)
echo none
run 0
WARNING: No fixes with time integration, atoms won't move (src/src/verlet.cpp:60)
Per MPI rank memory allocation (min/avg/max) = 3.244 | 3.244 | 3.244 Mbytes
    PotEng          Pxx           E_mol          E_coul    
-12.460992     -402957.83      0              0            
Loop time of 1.042e-06 on 1 procs for 0 steps with 2 atoms

96.0% CPU use with 1 MPI tasks x no OpenMP threads

MPI task timing breakdown:
Section |  min time  |  avg time  |  max time  |%varavg| %total
---------------------------------------------------------------
Pair    | 0          | 0          | 0          |   0.0 |  0.00
Neigh   | 0          | 0          | 0          |   0.0 |  0.00
Comm    | 0          | 0          | 0          |   0.0 |  0.00
Output  | 0          | 0          | 0          |   0.0 |  0.00
Modify  | 0          | 0          | 0          |   0.0 |  0.00
Other   |            | 1.042e-06  |            |       |100.00

Nlocal:              2 ave           2 max           2 min
Histogram: 1 0 0 0 0 0 0 0 0 0
Nghost:            339 ave         339 max         339 min
Histogram: 1 0 0 0 0 0 0 0 0 0
Neighs:            112 ave         112 max         112 min
Histogram: 1 0 0 0 0 0 0 0 0 0

Total # of neighbors = 112
Ave neighs/atom = 56
Neighbor list builds = 0
Dangerous builds = 0
set atom * x 0.0 y 0.0 z 0.0
Setting atom values ...
  2 settings made for x
  2 settings made for y
  2 settings made for z
change_box all     x final 0 3.4336253672546797 y final 0 3.4336253672546797 z final 0 3.4336253672546797      xy final 0.0 xz final 0.0 yz final 0.0 units box
Changing box ...
  triclinic box = (0 0 0) to (3.4336254 3.4021242 3.4021242) with tilt (0 0 0)
  triclinic box = (0 0 0) to (3.4336254 3.4336254 3.4021242) with tilt (0 0 0)
  triclinic box = (0 0 0) to (3.4336254 3.4336254 3.4336254) with tilt (0 0 0)
  triclinic box = (0 0 0) to (3.4336254 3.4336254 3.4336254) with tilt (0 0 0)
  triclinic box = (0 0 0) to (3.4336254 3.4336254 3.4336254) with tilt (0 0 0)
  triclinic box = (0 0 0) to (3.4336254 3.4336254 3.4336254) with tilt (0 0 0)
echo none
run 0
WARNING: No fixes with time integration, atoms won't move (src/src/verlet.cpp:60)
Per MPI rank memory allocation (min/avg/max) = 3.244 | 3.244 | 3.244 Mbytes
    PotEng          Pxx           E_mol          E_coul    
-12.171248     -437099.73      0              0            
Loop time of 9.17e-07 on 1 procs for 0 steps with 2 atoms

109.1% CPU use with 1 MPI tasks x no OpenMP threads

MPI task timing breakdown:
Section |  min time  |  avg time  |  max time  |%varavg| %total
---------------------------------------------------------------
Pair    | 0          | 0          | 0          |   0.0 |  0.00
Neigh   | 0          | 0          | 0          |   0.0 |  0.00
Comm    | 0          | 0          | 0          |   0.0 |  0.00
Output  | 0          | 0          | 0          |   0.0 |  0.00
Modify  | 0          | 0          | 0          |   0.0 |  0.00
Other   |            | 9.17e-07   |            |       |100.00

Nlocal:              2 ave           2 max           2 min
Histogram: 1 0 0 0 0 0 0 0 0 0
Nghost:            339 ave         339 max         339 min
Histogram: 1 0 0 0 0 0 0 0 0 0
Neighs:            112 ave         112 max         112 min
Histogram: 1 0 0 0 0 0 0 0 0 0

Total # of neighbors = 112
Ave neighs/atom = 56
Neighbor list builds = 0
Dangerous builds = 0
set atom * x 0.0 y 0.0 z 0.0
Setting atom values ...
  2 settings made for x
  2 settings made for y
  2 settings made for z
change_box all     x final 0 3.465126517412979 y final 0 3.465126517412979 z final 0 3.465126517412979      xy final 0.0 xz final 0.0 yz final 0.0 units box
Changing box ...
  triclinic box = (0 0 0) to (3.4651265 3.4336254 3.4336254) with tilt (0 0 0)
  triclinic box = (0 0 0) to (3.4651265 3.4651265 3.4336254) with tilt (0 0 0)
  triclinic box = (0 0 0) to (3.4651265 3.4651265 3.4651265) with tilt (0 0 0)
  triclinic box = (0 0 0) to (3.4651265 3.4651265 3.4651265) with tilt (0 0 0)
  triclinic box = (0 0 0) to (3.4651265 3.4651265 3.4651265) with tilt (0 0 0)
  triclinic box = (0 0 0) to (3.4651265 3.4651265 3.4651265) with tilt (0 0 0)
echo none
run 0
WARNING: No fixes with time integration, atoms won't move (src/src/verlet.cpp:60)
Per MPI rank memory allocation (min/avg/max) = 3.244 | 3.244 | 3.244 Mbytes
    PotEng          Pxx           E_mol          E_coul    
-11.853966     -466122.96      0              0            
Loop time of 1.25e-06 on 1 procs for 0 steps with 2 atoms

160.0% CPU use with 1 MPI tasks x no OpenMP threads

MPI task timing breakdown:
Section |  min time  |  avg time  |  max time  |%varavg| %total
---------------------------------------------------------------
Pair    | 0          | 0          | 0          |   0.0 |  0.00
Neigh   | 0          | 0          | 0          |   0.0 |  0.00
Comm    | 0          | 0          | 0          |   0.0 |  0.00
Output  | 0          | 0          | 0          |   0.0 |  0.00
Modify  | 0          | 0          | 0          |   0.0 |  0.00
Other   |            | 1.25e-06   |            |       |100.00

Nlocal:              2 ave           2 max           2 min
Histogram: 1 0 0 0 0 0 0 0 0 0
Nghost:            339 ave         339 max         339 min
Histogram: 1 0 0 0 0 0 0 0 0 0
Neighs:            112 ave         112 max         112 min
Histogram: 1 0 0 0 0 0 0 0 0 0

Total # of neighbors = 112
Ave neighs/atom = 56
Neighbor list builds = 0
Dangerous builds = 0
set atom * x 0.0 y 0.0 z 0.0
Setting atom values ...
  2 settings made for x
  2 settings made for y
  2 settings made for z
change_box all     x final 0 9.450345047489941 y final 0 9.450345047489941 z final 0 9.450345047489941      xy final 0.0 xz final 0.0 yz final 0.0 units box
Changing box ...
  triclinic box = (0 0 0) to (9.450345 3.4651265 3.4651265) with tilt (0 0 0)
  triclinic box = (0 0 0) to (9.450345 9.450345 3.4651265) with tilt (0 0 0)
  triclinic box = (0 0 0) to (9.450345 9.450345 9.450345) with tilt (0 0 0)
  triclinic box = (0 0 0) to (9.450345 9.450345 9.450345) with tilt (0 0 0)
  triclinic box = (0 0 0) to (9.450345 9.450345 9.450345) with tilt (0 0 0)
  triclinic box = (0 0 0) to (9.450345 9.450345 9.450345) with tilt (0 0 0)
echo none
Created 52 atoms
  using lattice units in triclinic box = (0 0 0) to (9.450345 9.450345 9.450345) with tilt (0 0 0)
  create_atoms CPU = 0.000 seconds
Setting atom values ...
  1 settings made for type
Setting atom values ...
  1 settings made for type
Setting atom values ...
  1 settings made for type
Setting atom values ...
  1 settings made for type
Setting atom values ...
  1 settings made for type
Setting atom values ...
  1 settings made for type
Setting atom values ...
  1 settings made for type
Setting atom values ...
  1 settings made for type
Setting atom values ...
  1 settings made for type
Setting atom values ...
  1 settings made for type
Setting atom values ...
  1 settings made for type
Setting atom values ...
  1 settings made for type
Setting atom values ...
  1 settings made for type
Setting atom values ...
  1 settings made for type
Setting atom values ...
  1 settings made for type
Setting atom values ...
  1 settings made for type
Setting atom values ...
  1 settings made for type
Setting atom values ...
  1 settings made for type
Setting atom values ...
  1 settings made for type
Setting atom values ...
  1 settings made for type
Setting atom values ...
  1 settings made for type
Setting atom values ...
  1 settings made for type
Setting atom values ...
  1 settings made for type
Setting atom values ...
  1 settings made for type
Setting atom values ...
  1 settings made for type
Setting atom values ...
  1 settings made for type
Setting atom values ...
  1 settings made for type
Setting atom values ...
  1 settings made for type
Setting atom values ...
  1 settings made for type
Setting atom values ...
  1 settings made for type
Setting atom values ...
  1 settings made for type
Setting atom values ...
  1 settings made for type
Setting atom values ...
  1 settings made for type
Setting atom values ...
  1 settings made for type
Setting atom values ...
  1 settings made for type
Setting atom values ...
  1 settings made for type
Setting atom values ...
  1 settings made for type
Setting atom values ...
  1 settings made for type
Setting atom values ...
  1 settings made for type
Setting atom values ...
  1 settings made for type
Setting atom values ...
  1 settings made for type
Setting atom values ...
  1 settings made for type
Setting atom values ...
  1 settings made for type
Setting atom values ...
  1 settings made for type
Setting atom values ...
  1 settings made for type
Setting atom values ...
  1 settings made for type
Setting atom values ...
  1 settings made for type
Setting atom values ...
  1 settings made for type
Setting atom values ...
  1 settings made for type
Setting atom values ...
  1 settings made for type
Setting atom values ...
  1 settings made for type
Setting atom values ...
  1 settings made for type
run 0
WARNING: No fixes with time integration, atoms won't move (src/src/verlet.cpp:60)
Per MPI rank memory allocation (min/avg/max) = 3.251 | 3.251 | 3.251 Mbytes
    PotEng          Pxx           E_mol          E_coul    
-367.74019      58.337813      0              0            
Loop time of 1.584e-06 on 1 procs for 0 steps with 54 atoms

0.0% CPU use with 1 MPI tasks x no OpenMP threads

MPI task timing breakdown:
Section |  min time  |  avg time  |  max time  |%varavg| %total
---------------------------------------------------------------
Pair    | 0          | 0          | 0          |   0.0 |  0.00
Neigh   | 0          | 0          | 0          |   0.0 |  0.00
Comm    | 0          | 0          | 0          |   0.0 |  0.00
Output  | 0          | 0          | 0          |   0.0 |  0.00
Modify  | 0          | 0          | 0          |   0.0 |  0.00
Other   |            | 1.584e-06  |            |       |100.00

Nlocal:             54 ave          54 max          54 min
Histogram: 1 0 0 0 0 0 0 0 0 0
Nghost:           1187 ave        1187 max        1187 min
Histogram: 1 0 0 0 0 0 0 0 0 0
Neighs:           3672 ave        3672 max        3672 min
Histogram: 1 0 0 0 0 0 0 0 0 0

Total # of neighbors = 3672
Ave neighs/atom = 68
Neighbor list builds = 0
Dangerous builds = 0
set atom * x 0.0 y 0.0 z 0.0
Setting atom values ...
  54 settings made for x
  54 settings made for y
  54 settings made for z
change_box all     x final 0 9.261338146540142 y final 0 9.450345047489941 z final 0 9.450345047489941      xy final 0.0 xz final 0.0 yz final 0.0 units box
Changing box ...
  triclinic box = (0 0 0) to (9.2613381 9.450345 9.450345) with tilt (0 0 0)
  triclinic box = (0 0 0) to (9.2613381 9.450345 9.450345) with tilt (0 0 0)
  triclinic box = (0 0 0) to (9.2613381 9.450345 9.450345) with tilt (0 0 0)
  triclinic box = (0 0 0) to (9.2613381 9.450345 9.450345) with tilt (0 0 0)
  triclinic box = (0 0 0) to (9.2613381 9.450345 9.450345) with tilt (0 0 0)
  triclinic box = (0 0 0) to (9.2613381 9.450345 9.450345) with tilt (0 0 0)
echo none
run 0
WARNING: No fixes with time integration, atoms won't move (src/src/verlet.cpp:60)
Per MPI rank memory allocation (min/avg/max) = 3.251 | 3.251 | 3.251 Mbytes
    PotEng          Pxx           E_mol          E_coul    
-367.24812      93970.482      0              0            
Loop time of 9.58e-07 on 1 procs for 0 steps with 54 atoms

0.0% CPU use with 1 MPI tasks x no OpenMP threads

MPI task timing breakdown:
Section |  min time  |  avg time  |  max time  |%varavg| %total
---------------------------------------------------------------
Pair    | 0          | 0          | 0          |   0.0 |  0.00
Neigh   | 0          | 0          | 0          |   0.0 |  0.00
Comm    | 0          | 0          | 0          |   0.0 |  0.00
Output  | 0          | 0          | 0          |   0.0 |  0.00
Modify  | 0          | 0          | 0          |   0.0 |  0.00
Other   |            | 9.58e-07   |            |       |100.00

Nlocal:             54 ave          54 max          54 min
Histogram: 1 0 0 0 0 0 0 0 0 0
Nghost:           1187 ave        1187 max        1187 min
Histogram: 1 0 0 0 0 0 0 0 0 0
Neighs:           3888 ave        3888 max        3888 min
Histogram: 1 0 0 0 0 0 0 0 0 0

Total # of neighbors = 3888
Ave neighs/atom = 72
Neighbor list builds = 0
Dangerous builds = 0
set atom * x 0.0 y 0.0 z 0.0
Setting atom values ...
  54 settings made for x
  54 settings made for y
  54 settings made for z
change_box all     x final 0 9.355841597015042 y final 0 9.450345047489941 z final 0 9.450345047489941      xy final 0.0 xz final 0.0 yz final 0.0 units box
Changing box ...
  triclinic box = (0 0 0) to (9.3558416 9.450345 9.450345) with tilt (0 0 0)
  triclinic box = (0 0 0) to (9.3558416 9.450345 9.450345) with tilt (0 0 0)
  triclinic box = (0 0 0) to (9.3558416 9.450345 9.450345) with tilt (0 0 0)
  triclinic box = (0 0 0) to (9.3558416 9.450345 9.450345) with tilt (0 0 0)
  triclinic box = (0 0 0) to (9.3558416 9.450345 9.450345) with tilt (0 0 0)
  triclinic box = (0 0 0) to (9.3558416 9.450345 9.450345) with tilt (0 0 0)
echo none
run 0
WARNING: No fixes with time integration, atoms won't move (src/src/verlet.cpp:60)
Per MPI rank memory allocation (min/avg/max) = 3.251 | 3.251 | 3.251 Mbytes
    PotEng          Pxx           E_mol          E_coul    
-367.61807      46549.859      0              0            
Loop time of 9.58e-07 on 1 procs for 0 steps with 54 atoms

104.4% CPU use with 1 MPI tasks x no OpenMP threads

MPI task timing breakdown:
Section |  min time  |  avg time  |  max time  |%varavg| %total
---------------------------------------------------------------
Pair    | 0          | 0          | 0          |   0.0 |  0.00
Neigh   | 0          | 0          | 0          |   0.0 |  0.00
Comm    | 0          | 0          | 0          |   0.0 |  0.00
Output  | 0          | 0          | 0          |   0.0 |  0.00
Modify  | 0          | 0          | 0          |   0.0 |  0.00
Other   |            | 9.58e-07   |            |       |100.00

Nlocal:             54 ave          54 max          54 min
Histogram: 1 0 0 0 0 0 0 0 0 0
Nghost:           1187 ave        1187 max        1187 min
Histogram: 1 0 0 0 0 0 0 0 0 0
Neighs:           3672 ave        3672 max        3672 min
Histogram: 1 0 0 0 0 0 0 0 0 0

Total # of neighbors = 3672
Ave neighs/atom = 68
Neighbor list builds = 0
Dangerous builds = 0
set atom * x 0.0 y 0.0 z 0.0
Setting atom values ...
  54 settings made for x
  54 settings made for y
  54 settings made for z
change_box all     x final 0 9.450345047489941 y final 0 9.450345047489941 z final 0 9.450345047489941      xy final 0.0 xz final 0.0 yz final 0.0 units box
Changing box ...
  triclinic box = (0 0 0) to (9.450345 9.450345 9.450345) with tilt (0 0 0)
  triclinic box = (0 0 0) to (9.450345 9.450345 9.450345) with tilt (0 0 0)
  triclinic box = (0 0 0) to (9.450345 9.450345 9.450345) with tilt (0 0 0)
  triclinic box = (0 0 0) to (9.450345 9.450345 9.450345) with tilt (0 0 0)
  triclinic box = (0 0 0) to (9.450345 9.450345 9.450345) with tilt (0 0 0)
  triclinic box = (0 0 0) to (9.450345 9.450345 9.450345) with tilt (0 0 0)
echo none
run 0
WARNING: No fixes with time integration, atoms won't move (src/src/verlet.cpp:60)
Per MPI rank memory allocation (min/avg/max) = 3.251 | 3.251 | 3.251 Mbytes
    PotEng          Pxx           E_mol          E_coul    
-367.74019      58.337813      0              0            
Loop time of 7.92e-07 on 1 procs for 0 steps with 54 atoms

126.3% CPU use with 1 MPI tasks x no OpenMP threads

MPI task timing breakdown:
Section |  min time  |  avg time  |  max time  |%varavg| %total
---------------------------------------------------------------
Pair    | 0          | 0          | 0          |   0.0 |  0.00
Neigh   | 0          | 0          | 0          |   0.0 |  0.00
Comm    | 0          | 0          | 0          |   0.0 |  0.00
Output  | 0          | 0          | 0          |   0.0 |  0.00
Modify  | 0          | 0          | 0          |   0.0 |  0.00
Other   |            | 7.92e-07   |            |       |100.00

Nlocal:             54 ave          54 max          54 min
Histogram: 1 0 0 0 0 0 0 0 0 0
Nghost:           1187 ave        1187 max        1187 min
Histogram: 1 0 0 0 0 0 0 0 0 0
Neighs:           3672 ave        3672 max        3672 min
Histogram: 1 0 0 0 0 0 0 0 0 0

Total # of neighbors = 3672
Ave neighs/atom = 68
Neighbor list builds = 0
Dangerous builds = 0
set atom * x 0.0 y 0.0 z 0.0
Setting atom values ...
  54 settings made for x
  54 settings made for y
  54 settings made for z
change_box all     x final 0 9.544848497964841 y final 0 9.450345047489941 z final 0 9.450345047489941      xy final 0.0 xz final 0.0 yz final 0.0 units box
Changing box ...
  triclinic box = (0 0 0) to (9.5448485 9.450345 9.450345) with tilt (0 0 0)
  triclinic box = (0 0 0) to (9.5448485 9.450345 9.450345) with tilt (0 0 0)
  triclinic box = (0 0 0) to (9.5448485 9.450345 9.450345) with tilt (0 0 0)
  triclinic box = (0 0 0) to (9.5448485 9.450345 9.450345) with tilt (0 0 0)
  triclinic box = (0 0 0) to (9.5448485 9.450345 9.450345) with tilt (0 0 0)
  triclinic box = (0 0 0) to (9.5448485 9.450345 9.450345) with tilt (0 0 0)
echo none
run 0
WARNING: No fixes with time integration, atoms won't move (src/src/verlet.cpp:60)
Per MPI rank memory allocation (min/avg/max) = 3.251 | 3.251 | 3.251 Mbytes
    PotEng          Pxx           E_mol          E_coul    
-367.62224     -44411.376      0              0            
Loop time of 1e-06 on 1 procs for 0 steps with 54 atoms

0.0% CPU use with 1 MPI tasks x no OpenMP threads

MPI task timing breakdown:
Section |  min time  |  avg time  |  max time  |%varavg| %total
---------------------------------------------------------------
Pair    | 0          | 0          | 0          |   0.0 |  0.00
Neigh   | 0          | 0          | 0          |   0.0 |  0.00
Comm    | 0          | 0          | 0          |   0.0 |  0.00
Output  | 0          | 0          | 0          |   0.0 |  0.00
Modify  | 0          | 0          | 0          |   0.0 |  0.00
Other   |            | 1e-06      |            |       |100.00

Nlocal:             54 ave          54 max          54 min
Histogram: 1 0 0 0 0 0 0 0 0 0
Nghost:           1187 ave        1187 max        1187 min
Histogram: 1 0 0 0 0 0 0 0 0 0
Neighs:           3672 ave        3672 max        3672 min
Histogram: 1 0 0 0 0 0 0 0 0 0

Total # of neighbors = 3672
Ave neighs/atom = 68
Neighbor list builds = 0
Dangerous builds = 0
set atom * x 0.0 y 0.0 z 0.0
Setting atom values ...
  54 settings made for x
  54 settings made for y
  54 settings made for z
change_box all     x final 0 9.63935194843974 y final 0 9.450345047489941 z final 0 9.450345047489941      xy final 0.0 xz final 0.0 yz final 0.0 units box
Changing box ...
  triclinic box = (0 0 0) to (9.6393519 9.450345 9.450345) with tilt (0 0 0)
  triclinic box = (0 0 0) to (9.6393519 9.450345 9.450345) with tilt (0 0 0)
  triclinic box = (0 0 0) to (9.6393519 9.450345 9.450345) with tilt (0 0 0)
  triclinic box = (0 0 0) to (9.6393519 9.450345 9.450345) with tilt (0 0 0)
  triclinic box = (0 0 0) to (9.6393519 9.450345 9.450345) with tilt (0 0 0)
  triclinic box = (0 0 0) to (9.6393519 9.450345 9.450345) with tilt (0 0 0)
echo none
run 0
WARNING: No fixes with time integration, atoms won't move (src/src/verlet.cpp:60)
Per MPI rank memory allocation (min/avg/max) = 3.251 | 3.251 | 3.251 Mbytes
    PotEng          Pxx           E_mol          E_coul    
-367.27771     -85793.365      0              0            
Loop time of 9.17e-07 on 1 procs for 0 steps with 54 atoms

0.0% CPU use with 1 MPI tasks x no OpenMP threads

MPI task timing breakdown:
Section |  min time  |  avg time  |  max time  |%varavg| %total
---------------------------------------------------------------
Pair    | 0          | 0          | 0          |   0.0 |  0.00
Neigh   | 0          | 0          | 0          |   0.0 |  0.00
Comm    | 0          | 0          | 0          |   0.0 |  0.00
Output  | 0          | 0          | 0          |   0.0 |  0.00
Modify  | 0          | 0          | 0          |   0.0 |  0.00
Other   |            | 9.17e-07   |            |       |100.00

Nlocal:             54 ave          54 max          54 min
Histogram: 1 0 0 0 0 0 0 0 0 0
Nghost:           1187 ave        1187 max        1187 min
Histogram: 1 0 0 0 0 0 0 0 0 0
Neighs:           3672 ave        3672 max        3672 min
Histogram: 1 0 0 0 0 0 0 0 0 0

Total # of neighbors = 3672
Ave neighs/atom = 68
Neighbor list builds = 0
Dangerous builds = 0
set atom * x 0.0 y 0.0 z 0.0
Setting atom values ...
  54 settings made for x
  54 settings made for y
  54 settings made for z
change_box all     x final 0 9.450345047489941 y final 0 9.450363948161135 z final 0 9.450326146856549      xy final 0.0 xz final 0.0 yz final 0.0189006522937131 units box
Changing box ...
  triclinic box = (0 0 0) to (9.450345 9.450345 9.450345) with tilt (0 0 0)
  triclinic box = (0 0 0) to (9.450345 9.4503639 9.450345) with tilt (0 0 0)
  triclinic box = (0 0 0) to (9.450345 9.4503639 9.4503261) with tilt (0 0 0)
  triclinic box = (0 0 0) to (9.450345 9.4503639 9.4503261) with tilt (0 0 0)
  triclinic box = (0 0 0) to (9.450345 9.4503639 9.4503261) with tilt (0 0 0)
  triclinic box = (0 0 0) to (9.450345 9.4503639 9.4503261) with tilt (0 0 0.018900652)
echo none
run 0
WARNING: No fixes with time integration, atoms won't move (src/src/verlet.cpp:60)
Per MPI rank memory allocation (min/avg/max) = 3.251 | 3.251 | 3.251 Mbytes
    PotEng          Pxx           E_mol          E_coul    
-367.739        67.757601      0              0            
Loop time of 9.59e-07 on 1 procs for 0 steps with 54 atoms

208.6% CPU use with 1 MPI tasks x no OpenMP threads

MPI task timing breakdown:
Section |  min time  |  avg time  |  max time  |%varavg| %total
---------------------------------------------------------------
Pair    | 0          | 0          | 0          |   0.0 |  0.00
Neigh   | 0          | 0          | 0          |   0.0 |  0.00
Comm    | 0          | 0          | 0          |   0.0 |  0.00
Output  | 0          | 0          | 0          |   0.0 |  0.00
Modify  | 0          | 0          | 0          |   0.0 |  0.00
Other   |            | 9.59e-07   |            |       |100.00

Nlocal:             54 ave          54 max          54 min
Histogram: 1 0 0 0 0 0 0 0 0 0
Nghost:           1187 ave        1187 max        1187 min
Histogram: 1 0 0 0 0 0 0 0 0 0
Neighs:           3672 ave        3672 max        3672 min
Histogram: 1 0 0 0 0 0 0 0 0 0

Total # of neighbors = 3672
Ave neighs/atom = 68
Neighbor list builds = 0
Dangerous builds = 0
set atom * x 0.0 y 0.0 z 0.0
Setting atom values ...
  54 settings made for x
  54 settings made for y
  54 settings made for z
change_box all     x final 0 9.450345047489941 y final 0 9.450544683920432 z final 0 9.450145415276637      xy final 0.0 xz final 0.0 yz final 0.06142594519929814 units box
Changing box ...
  triclinic box = (0 0 0) to (9.450345 9.4503639 9.4503261) with tilt (0 0 0.018900652)
  triclinic box = (0 0 0) to (9.450345 9.4505447 9.4503261) with tilt (0 0 0.018900652)
  triclinic box = (0 0 0) to (9.450345 9.4505447 9.4501454) with tilt (0 0 0.018900652)
  triclinic box = (0 0 0) to (9.450345 9.4505447 9.4501454) with tilt (0 0 0.018900652)
  triclinic box = (0 0 0) to (9.450345 9.4505447 9.4501454) with tilt (0 0 0.018900652)
  triclinic box = (0 0 0) to (9.450345 9.4505447 9.4501454) with tilt (0 0 0.061425945)
echo none
run 0
WARNING: No fixes with time integration, atoms won't move (src/src/verlet.cpp:60)
Per MPI rank memory allocation (min/avg/max) = 3.251 | 3.251 | 3.251 Mbytes
    PotEng          Pxx           E_mol          E_coul    
-367.7276       157.80901      0              0            
Loop time of 5.83e-07 on 1 procs for 0 steps with 54 atoms

171.5% CPU use with 1 MPI tasks x no OpenMP threads

MPI task timing breakdown:
Section |  min time  |  avg time  |  max time  |%varavg| %total
---------------------------------------------------------------
Pair    | 0          | 0          | 0          |   0.0 |  0.00
Neigh   | 0          | 0          | 0          |   0.0 |  0.00
Comm    | 0          | 0          | 0          |   0.0 |  0.00
Output  | 0          | 0          | 0          |   0.0 |  0.00
Modify  | 0          | 0          | 0          |   0.0 |  0.00
Other   |            | 5.83e-07   |            |       |100.00

Nlocal:             54 ave          54 max          54 min
Histogram: 1 0 0 0 0 0 0 0 0 0
Nghost:           1187 ave        1187 max        1187 min
Histogram: 1 0 0 0 0 0 0 0 0 0
Neighs:           3672 ave        3672 max        3672 min
Histogram: 1 0 0 0 0 0 0 0 0 0

Total # of neighbors = 3672
Ave neighs/atom = 68
Neighbor list builds = 0
Dangerous builds = 0
set atom * x 0.0 y 0.0 z 0.0
Setting atom values ...
  54 settings made for x
  54 settings made for y
  54 settings made for z
change_box all     x final 0 9.450345047489941 y final 0 9.450916776071049 z final 0 9.449773353495276      xy final 0.0 xz final 0.0 yz final 0.10394750688844805 units box
Changing box ...
  triclinic box = (0 0 0) to (9.450345 9.4505447 9.4501454) with tilt (0 0 0.061425945)
  triclinic box = (0 0 0) to (9.450345 9.4509168 9.4501454) with tilt (0 0 0.061425945)
  triclinic box = (0 0 0) to (9.450345 9.4509168 9.4497734) with tilt (0 0 0.061425945)
  triclinic box = (0 0 0) to (9.450345 9.4509168 9.4497734) with tilt (0 0 0.061425945)
  triclinic box = (0 0 0) to (9.450345 9.4509168 9.4497734) with tilt (0 0 0.061425945)
  triclinic box = (0 0 0) to (9.450345 9.4509168 9.4497734) with tilt (0 0 0.10394751)
echo none
run 0
WARNING: No fixes with time integration, atoms won't move (src/src/verlet.cpp:60)
Per MPI rank memory allocation (min/avg/max) = 3.251 | 3.251 | 3.251 Mbytes
    PotEng          Pxx           E_mol          E_coul    
-367.70413      343.16413      0              0            
Loop time of 8.75e-07 on 1 procs for 0 steps with 54 atoms

228.6% CPU use with 1 MPI tasks x no OpenMP threads

MPI task timing breakdown:
Section |  min time  |  avg time  |  max time  |%varavg| %total
---------------------------------------------------------------
Pair    | 0          | 0          | 0          |   0.0 |  0.00
Neigh   | 0          | 0          | 0          |   0.0 |  0.00
Comm    | 0          | 0          | 0          |   0.0 |  0.00
Output  | 0          | 0          | 0          |   0.0 |  0.00
Modify  | 0          | 0          | 0          |   0.0 |  0.00
Other   |            | 8.75e-07   |            |       |100.00

Nlocal:             54 ave          54 max          54 min
Histogram: 1 0 0 0 0 0 0 0 0 0
Nghost:           1187 ave        1187 max        1187 min
Histogram: 1 0 0 0 0 0 0 0 0 0
Neighs:           3672 ave        3672 max        3672 min
Histogram: 1 0 0 0 0 0 0 0 0 0

Total # of neighbors = 3672
Ave neighs/atom = 68
Neighbor list builds = 0
Dangerous builds = 0
set atom * x 0.0 y 0.0 z 0.0
Setting atom values ...
  54 settings made for x
  54 settings made for y
  54 settings made for z
change_box all     x final 0 9.450345047489941 y final 0 9.451480202012647 z final 0 9.449210029303108      xy final 0.0 xz final 0.0 yz final 0.14646275545419815 units box
Changing box ...
  triclinic box = (0 0 0) to (9.450345 9.4509168 9.4497734) with tilt (0 0 0.10394751)
  triclinic box = (0 0 0) to (9.450345 9.4514802 9.4497734) with tilt (0 0 0.10394751)
  triclinic box = (0 0 0) to (9.450345 9.4514802 9.44921) with tilt (0 0 0.10394751)
  triclinic box = (0 0 0) to (9.450345 9.4514802 9.44921) with tilt (0 0 0.10394751)
  triclinic box = (0 0 0) to (9.450345 9.4514802 9.44921) with tilt (0 0 0.10394751)
  triclinic box = (0 0 0) to (9.450345 9.4514802 9.44921) with tilt (0 0 0.14646276)
echo none
run 0
WARNING: No fixes with time integration, atoms won't move (src/src/verlet.cpp:60)
Per MPI rank memory allocation (min/avg/max) = 3.251 | 3.251 | 3.251 Mbytes
    PotEng          Pxx           E_mol          E_coul    
-367.66859      623.71892      0              0            
Loop time of 7.5e-07 on 1 procs for 0 steps with 54 atoms

0.0% CPU use with 1 MPI tasks x no OpenMP threads

MPI task timing breakdown:
Section |  min time  |  avg time  |  max time  |%varavg| %total
---------------------------------------------------------------
Pair    | 0          | 0          | 0          |   0.0 |  0.00
Neigh   | 0          | 0          | 0          |   0.0 |  0.00
Comm    | 0          | 0          | 0          |   0.0 |  0.00
Output  | 0          | 0          | 0          |   0.0 |  0.00
Modify  | 0          | 0          | 0          |   0.0 |  0.00
Other   |            | 7.5e-07    |            |       |100.00

Nlocal:             54 ave          54 max          54 min
Histogram: 1 0 0 0 0 0 0 0 0 0
Nghost:           1187 ave        1187 max        1187 min
Histogram: 1 0 0 0 0 0 0 0 0 0
Neighs:           3672 ave        3672 max        3672 min
Histogram: 1 0 0 0 0 0 0 0 0 0

Total # of neighbors = 3672
Ave neighs/atom = 68
Neighbor list builds = 0
Dangerous builds = 0
set atom * x 0.0 y 0.0 z 0.0
Setting atom values ...
  54 settings made for x
  54 settings made for y
  54 settings made for z
change_box all     x final 0 9.450345047489941 y final 0 9.45223492753033 z final 0 9.448455545312207      xy final 0.0 xz final 0.0 yz final 0.18896911090624413 units box
Changing box ...
  triclinic box = (0 0 0) to (9.450345 9.4514802 9.44921) with tilt (0 0 0.14646276)
  triclinic box = (0 0 0) to (9.450345 9.4522349 9.44921) with tilt (0 0 0.14646276)
  triclinic box = (0 0 0) to (9.450345 9.4522349 9.4484555) with tilt (0 0 0.14646276)
  triclinic box = (0 0 0) to (9.450345 9.4522349 9.4484555) with tilt (0 0 0.14646276)
  triclinic box = (0 0 0) to (9.450345 9.4522349 9.4484555) with tilt (0 0 0.14646276)
  triclinic box = (0 0 0) to (9.450345 9.4522349 9.4484555) with tilt (0 0 0.18896911)
echo none
run 0
WARNING: No fixes with time integration, atoms won't move (src/src/verlet.cpp:60)
Per MPI rank memory allocation (min/avg/max) = 3.251 | 3.251 | 3.251 Mbytes
    PotEng          Pxx           E_mol          E_coul    
-367.62096      999.32458      0              0            
Loop time of 9.17e-07 on 1 procs for 0 steps with 54 atoms

0.0% CPU use with 1 MPI tasks x no OpenMP threads

MPI task timing breakdown:
Section |  min time  |  avg time  |  max time  |%varavg| %total
---------------------------------------------------------------
Pair    | 0          | 0          | 0          |   0.0 |  0.00
Neigh   | 0          | 0          | 0          |   0.0 |  0.00
Comm    | 0          | 0          | 0          |   0.0 |  0.00
Output  | 0          | 0          | 0          |   0.0 |  0.00
Modify  | 0          | 0          | 0          |   0.0 |  0.00
Other   |            | 9.17e-07   |            |       |100.00

Nlocal:             54 ave          54 max          54 min
Histogram: 1 0 0 0 0 0 0 0 0 0
Nghost:           1187 ave        1187 max        1187 min
Histogram: 1 0 0 0 0 0 0 0 0 0
Neighs:           3672 ave        3672 max        3672 min
Histogram: 1 0 0 0 0 0 0 0 0 0

Total # of neighbors = 3672
Ave neighs/atom = 68
Neighbor list builds = 0
Dangerous builds = 0
set atom * x 0.0 y 0.0 z 0.0
Setting atom values ...
  54 settings made for x
  54 settings made for y
  54 settings made for z
change_box all     x final 0 9.450345047489941 y final 0 9.450345047489941 z final 0 9.450345047489941      xy final 0.0 xz final 0.0 yz final 0.0 units box
Changing box ...
  triclinic box = (0 0 0) to (9.450345 9.4522349 9.4484555) with tilt (0 0 0.18896911)
  triclinic box = (0 0 0) to (9.450345 9.450345 9.4484555) with tilt (0 0 0.18896911)
  triclinic box = (0 0 0) to (9.450345 9.450345 9.450345) with tilt (0 0 0.18896911)
  triclinic box = (0 0 0) to (9.450345 9.450345 9.450345) with tilt (0 0 0.18896911)
  triclinic box = (0 0 0) to (9.450345 9.450345 9.450345) with tilt (0 0 0.18896911)
  triclinic box = (0 0 0) to (9.450345 9.450345 9.450345) with tilt (0 0 0)
echo none
run 0
WARNING: No fixes with time integration, atoms won't move (src/src/verlet.cpp:60)
Per MPI rank memory allocation (min/avg/max) = 3.251 | 3.251 | 3.251 Mbytes
    PotEng          Pxx           E_mol          E_coul    
-367.73947      60.231711      0              0            
Loop time of 8.33e-07 on 1 procs for 0 steps with 54 atoms

480.2% CPU use with 1 MPI tasks x no OpenMP threads

MPI task timing breakdown:
Section |  min time  |  avg time  |  max time  |%varavg| %total
---------------------------------------------------------------
Pair    | 0          | 0          | 0          |   0.0 |  0.00
Neigh   | 0          | 0          | 0          |   0.0 |  0.00
[...]
  triclinic box = (0 0 0) to (8.8886466 10.886324 31.499049) with tilt (-8.8886466 0 0)
echo none
run 0
Per MPI rank memory allocation (min/avg/max) = 3.33 | 3.33 | 3.33 Mbytes
    PotEng          Pxx           E_mol          E_coul    
-514.11437     -1156.9704      0              0            
Loop time of 9.17e-07 on 1 procs for 0 steps with 80 atoms

0.0% CPU use with 1 MPI tasks x no OpenMP threads

MPI task timing breakdown:
Section |  min time  |  avg time  |  max time  |%varavg| %total
---------------------------------------------------------------
Pair    | 0          | 0          | 0          |   0.0 |  0.00
Neigh   | 0          | 0          | 0          |   0.0 |  0.00
Comm    | 0          | 0          | 0          |   0.0 |  0.00
Output  | 0          | 0          | 0          |   0.0 |  0.00
Modify  | 0          | 0          | 0          |   0.0 |  0.00
Other   |            | 9.17e-07   |            |       |100.00

Nlocal:             80 ave          80 max          80 min
Histogram: 1 0 0 0 0 0 0 0 0 0
Nghost:            587 ave         587 max         587 min
Histogram: 1 0 0 0 0 0 0 0 0 0
Neighs:           4272 ave        4272 max        4272 min
Histogram: 1 0 0 0 0 0 0 0 0 0

Total # of neighbors = 4272
Ave neighs/atom = 53.4
Neighbor list builds = 0
Dangerous builds = 0
set atom * x 0.0 y 0.0 z 0.0
Setting atom values ...
  80 settings made for x
  80 settings made for y
  80 settings made for z
change_box all     x final 0 8.889538999320484 y final 0 10.88741729845329 z final 0 31.502211175982428      xy final -8.889538999320482 xz final 0.0 yz final 0.0 units box
Changing box ...
  triclinic box = (0 0 0) to (8.889539 10.886324 31.499049) with tilt (-8.8886466 0 0)
  triclinic box = (0 0 0) to (8.889539 10.887417 31.499049) with tilt (-8.8886466 0 0)
  triclinic box = (0 0 0) to (8.889539 10.887417 31.502211) with tilt (-8.8886466 0 0)
  triclinic box = (0 0 0) to (8.889539 10.887417 31.502211) with tilt (-8.889539 0 0)
  triclinic box = (0 0 0) to (8.889539 10.887417 31.502211) with tilt (-8.889539 0 0)
  triclinic box = (0 0 0) to (8.889539 10.887417 31.502211) with tilt (-8.889539 0 0)
echo none
run 0
Per MPI rank memory allocation (min/avg/max) = 3.33 | 3.33 | 3.33 Mbytes
    PotEng          Pxx           E_mol          E_coul    
-514.11536     -1243.5583      0              0            
Loop time of 8.75e-07 on 1 procs for 0 steps with 80 atoms

114.3% CPU use with 1 MPI tasks x no OpenMP threads

MPI task timing breakdown:
Section |  min time  |  avg time  |  max time  |%varavg| %total
---------------------------------------------------------------
Pair    | 0          | 0          | 0          |   0.0 |  0.00
Neigh   | 0          | 0          | 0          |   0.0 |  0.00
Comm    | 0          | 0          | 0          |   0.0 |  0.00
Output  | 0          | 0          | 0          |   0.0 |  0.00
Modify  | 0          | 0          | 0          |   0.0 |  0.00
Other   |            | 8.75e-07   |            |       |100.00

Nlocal:             80 ave          80 max          80 min
Histogram: 1 0 0 0 0 0 0 0 0 0
Nghost:            587 ave         587 max         587 min
Histogram: 1 0 0 0 0 0 0 0 0 0
Neighs:           4272 ave        4272 max        4272 min
Histogram: 1 0 0 0 0 0 0 0 0 0

Total # of neighbors = 4272
Ave neighs/atom = 53.4
Neighbor list builds = 0
Dangerous builds = 0
set atom * x 0.0 y 0.0 z 0.0
Setting atom values ...
  80 settings made for x
  80 settings made for y
  80 settings made for z
change_box all     x final 0 8.889538999320484 y final 0 10.887417298453292 z final 0 31.502211175982428      xy final -8.889538999320482 xz final 0.0 yz final 0.0 units box
Changing box ...
  triclinic box = (0 0 0) to (8.889539 10.887417 31.502211) with tilt (-8.889539 0 0)
  triclinic box = (0 0 0) to (8.889539 10.887417 31.502211) with tilt (-8.889539 0 0)
  triclinic box = (0 0 0) to (8.889539 10.887417 31.502211) with tilt (-8.889539 0 0)
  triclinic box = (0 0 0) to (8.889539 10.887417 31.502211) with tilt (-8.889539 0 0)
  triclinic box = (0 0 0) to (8.889539 10.887417 31.502211) with tilt (-8.889539 0 0)
  triclinic box = (0 0 0) to (8.889539 10.887417 31.502211) with tilt (-8.889539 0 0)
echo none
run 0
Per MPI rank memory allocation (min/avg/max) = 3.33 | 3.33 | 3.33 Mbytes
    PotEng          Pxx           E_mol          E_coul    
-514.11536     -1243.5583      0              0            
Loop time of 6.25e-07 on 1 procs for 0 steps with 80 atoms

320.0% CPU use with 1 MPI tasks x no OpenMP threads

MPI task timing breakdown:
Section |  min time  |  avg time  |  max time  |%varavg| %total
---------------------------------------------------------------
Pair    | 0          | 0          | 0          |   0.0 |  0.00
Neigh   | 0          | 0          | 0          |   0.0 |  0.00
Comm    | 0          | 0          | 0          |   0.0 |  0.00
Output  | 0          | 0          | 0          |   0.0 |  0.00
Modify  | 0          | 0          | 0          |   0.0 |  0.00
Other   |            | 6.25e-07   |            |       |100.00

Nlocal:             80 ave          80 max          80 min
Histogram: 1 0 0 0 0 0 0 0 0 0
Nghost:            587 ave         587 max         587 min
Histogram: 1 0 0 0 0 0 0 0 0 0
Neighs:           4272 ave        4272 max        4272 min
Histogram: 1 0 0 0 0 0 0 0 0 0

Total # of neighbors = 4272
Ave neighs/atom = 53.4
Neighbor list builds = 0
Dangerous builds = 0
set atom * x 0.0 y 0.0 z 0.0
Setting atom values ...
  80 settings made for x
  80 settings made for y
  80 settings made for z
change_box all     x final 0 8.890155480001324 y final 0 10.888172330005462 z final 0 31.50439582296977      xy final -8.890155480001322 xz final 0.0 yz final 0.0 units box
Changing box ...
  triclinic box = (0 0 0) to (8.8901555 10.887417 31.502211) with tilt (-8.889539 0 0)
  triclinic box = (0 0 0) to (8.8901555 10.888172 31.502211) with tilt (-8.889539 0 0)
  triclinic box = (0 0 0) to (8.8901555 10.888172 31.504396) with tilt (-8.889539 0 0)
  triclinic box = (0 0 0) to (8.8901555 10.888172 31.504396) with tilt (-8.8901555 0 0)
  triclinic box = (0 0 0) to (8.8901555 10.888172 31.504396) with tilt (-8.8901555 0 0)
  triclinic box = (0 0 0) to (8.8901555 10.888172 31.504396) with tilt (-8.8901555 0 0)
echo none
run 0
Per MPI rank memory allocation (min/avg/max) = 3.33 | 3.33 | 3.33 Mbytes
    PotEng          Pxx           E_mol          E_coul    
-514.11742     -1280.2683      0              0            
Loop time of 7.08e-07 on 1 procs for 0 steps with 80 atoms

0.0% CPU use with 1 MPI tasks x no OpenMP threads

MPI task timing breakdown:
Section |  min time  |  avg time  |  max time  |%varavg| %total
---------------------------------------------------------------
Pair    | 0          | 0          | 0          |   0.0 |  0.00
Neigh   | 0          | 0          | 0          |   0.0 |  0.00
Comm    | 0          | 0          | 0          |   0.0 |  0.00
Output  | 0          | 0          | 0          |   0.0 |  0.00
Modify  | 0          | 0          | 0          |   0.0 |  0.00
Other   |            | 7.08e-07   |            |       |100.00

Nlocal:             80 ave          80 max          80 min
Histogram: 1 0 0 0 0 0 0 0 0 0
Nghost:            587 ave         587 max         587 min
Histogram: 1 0 0 0 0 0 0 0 0 0
Neighs:           4272 ave        4272 max        4272 min
Histogram: 1 0 0 0 0 0 0 0 0 0

Total # of neighbors = 4272
Ave neighs/atom = 53.4
Neighbor list builds = 0
Dangerous builds = 0
set atom * x 0.0 y 0.0 z 0.0
Setting atom values ...
  80 settings made for x
  80 settings made for y
  80 settings made for z
change_box all     x final 0 8.89262183027755 y final 0 10.891192979857324 z final 0 31.513135926055142      xy final -8.892621830277548 xz final 0.0 yz final 0.0 units box
Changing box ...
  triclinic box = (0 0 0) to (8.8926218 10.888172 31.504396) with tilt (-8.8901555 0 0)
  triclinic box = (0 0 0) to (8.8926218 10.891193 31.504396) with tilt (-8.8901555 0 0)
  triclinic box = (0 0 0) to (8.8926218 10.891193 31.513136) with tilt (-8.8901555 0 0)
  triclinic box = (0 0 0) to (8.8926218 10.891193 31.513136) with tilt (-8.8926218 0 0)
  triclinic box = (0 0 0) to (8.8926218 10.891193 31.513136) with tilt (-8.8926218 0 0)
  triclinic box = (0 0 0) to (8.8926218 10.891193 31.513136) with tilt (-8.8926218 0 0)
echo none
run 0
Per MPI rank memory allocation (min/avg/max) = 3.33 | 3.33 | 3.33 Mbytes
    PotEng          Pxx           E_mol          E_coul    
-514.12147     -1424.9807      0              0            
Loop time of 8.75e-07 on 1 procs for 0 steps with 80 atoms

114.3% CPU use with 1 MPI tasks x no OpenMP threads

MPI task timing breakdown:
Section |  min time  |  avg time  |  max time  |%varavg| %total
---------------------------------------------------------------
Pair    | 0          | 0          | 0          |   0.0 |  0.00
Neigh   | 0          | 0          | 0          |   0.0 |  0.00
Comm    | 0          | 0          | 0          |   0.0 |  0.00
Output  | 0          | 0          | 0          |   0.0 |  0.00
Modify  | 0          | 0          | 0          |   0.0 |  0.00
Other   |            | 8.75e-07   |            |       |100.00

Nlocal:             80 ave          80 max          80 min
Histogram: 1 0 0 0 0 0 0 0 0 0
Nghost:            587 ave         587 max         587 min
Histogram: 1 0 0 0 0 0 0 0 0 0
Neighs:           4288 ave        4288 max        4288 min
Histogram: 1 0 0 0 0 0 0 0 0 0

Total # of neighbors = 4288
Ave neighs/atom = 53.6
Neighbor list builds = 0
Dangerous builds = 0
set atom * x 0.0 y 0.0 z 0.0
Setting atom values ...
  80 settings made for x
  80 settings made for y
  80 settings made for z
change_box all     x final 0 8.89262183027755 y final 0 10.891192979857326 z final 0 31.51313592605514      xy final -8.892621830277548 xz final 0.0 yz final 0.0 units box
Changing box ...
  triclinic box = (0 0 0) to (8.8926218 10.891193 31.513136) with tilt (-8.8926218 0 0)
  triclinic box = (0 0 0) to (8.8926218 10.891193 31.513136) with tilt (-8.8926218 0 0)
  triclinic box = (0 0 0) to (8.8926218 10.891193 31.513136) with tilt (-8.8926218 0 0)
  triclinic box = (0 0 0) to (8.8926218 10.891193 31.513136) with tilt (-8.8926218 0 0)
  triclinic box = (0 0 0) to (8.8926218 10.891193 31.513136) with tilt (-8.8926218 0 0)
  triclinic box = (0 0 0) to (8.8926218 10.891193 31.513136) with tilt (-8.8926218 0 0)
echo none
run 0
Per MPI rank memory allocation (min/avg/max) = 3.33 | 3.33 | 3.33 Mbytes
    PotEng          Pxx           E_mol          E_coul    
-514.12147     -1424.9807      0              0            
Loop time of 6.67e-07 on 1 procs for 0 steps with 80 atoms

299.9% CPU use with 1 MPI tasks x no OpenMP threads

MPI task timing breakdown:
Section |  min time  |  avg time  |  max time  |%varavg| %total
---------------------------------------------------------------
Pair    | 0          | 0          | 0          |   0.0 |  0.00
Neigh   | 0          | 0          | 0          |   0.0 |  0.00
Comm    | 0          | 0          | 0          |   0.0 |  0.00
Output  | 0          | 0          | 0          |   0.0 |  0.00
Modify  | 0          | 0          | 0          |   0.0 |  0.00
Other   |            | 6.67e-07   |            |       |100.00

Nlocal:             80 ave          80 max          80 min
Histogram: 1 0 0 0 0 0 0 0 0 0
Nghost:            587 ave         587 max         587 min
Histogram: 1 0 0 0 0 0 0 0 0 0
Neighs:           4288 ave        4288 max        4288 min
Histogram: 1 0 0 0 0 0 0 0 0 0

Total # of neighbors = 4288
Ave neighs/atom = 53.6
Neighbor list builds = 0
Dangerous builds = 0
set atom * x 0.0 y 0.0 z 0.0
Setting atom values ...
  80 settings made for x
  80 settings made for y
  80 settings made for z
change_box all     x final 0 8.893588767911313 y final 0 10.892377231765234 z final 0 31.5165625012167      xy final -8.893588767911313 xz final 0.0 yz final 0.0 units box
Changing box ...
  triclinic box = (0 0 0) to (8.8935888 10.891193 31.513136) with tilt (-8.8926218 0 0)
  triclinic box = (0 0 0) to (8.8935888 10.892377 31.513136) with tilt (-8.8926218 0 0)
  triclinic box = (0 0 0) to (8.8935888 10.892377 31.516563) with tilt (-8.8926218 0 0)
  triclinic box = (0 0 0) to (8.8935888 10.892377 31.516563) with tilt (-8.8935888 0 0)
  triclinic box = (0 0 0) to (8.8935888 10.892377 31.516563) with tilt (-8.8935888 0 0)
  triclinic box = (0 0 0) to (8.8935888 10.892377 31.516563) with tilt (-8.8935888 0 0)
echo none
run 0
Per MPI rank memory allocation (min/avg/max) = 3.33 | 3.33 | 3.33 Mbytes
    PotEng          Pxx           E_mol          E_coul    
-514.1222      -1495.5527      0              0            
Loop time of 1.208e-06 on 1 procs for 0 steps with 80 atoms

82.8% CPU use with 1 MPI tasks x no OpenMP threads

MPI task timing breakdown:
Section |  min time  |  avg time  |  max time  |%varavg| %total
---------------------------------------------------------------
Pair    | 0          | 0          | 0          |   0.0 |  0.00
Neigh   | 0          | 0          | 0          |   0.0 |  0.00
Comm    | 0          | 0          | 0          |   0.0 |  0.00
Output  | 0          | 0          | 0          |   0.0 |  0.00
Modify  | 0          | 0          | 0          |   0.0 |  0.00
Other   |            | 1.208e-06  |            |       |100.00

Nlocal:             80 ave          80 max          80 min
Histogram: 1 0 0 0 0 0 0 0 0 0
Nghost:            587 ave         587 max         587 min
Histogram: 1 0 0 0 0 0 0 0 0 0
Neighs:           4288 ave        4288 max        4288 min
Histogram: 1 0 0 0 0 0 0 0 0 0

Total # of neighbors = 4288
Ave neighs/atom = 53.6
Neighbor list builds = 0
Dangerous builds = 0
set atom * x 0.0 y 0.0 z 0.0
Setting atom values ...
  80 settings made for x
  80 settings made for y
  80 settings made for z
change_box all     x final 0 8.893588767911313 y final 0 10.892377231765234 z final 0 31.5165625012167      xy final -8.893588767911313 xz final 0.0 yz final 0.0 units box
Changing box ...
  triclinic box = (0 0 0) to (8.8935888 10.892377 31.516563) with tilt (-8.8935888 0 0)
  triclinic box = (0 0 0) to (8.8935888 10.892377 31.516563) with tilt (-8.8935888 0 0)
  triclinic box = (0 0 0) to (8.8935888 10.892377 31.516563) with tilt (-8.8935888 0 0)
  triclinic box = (0 0 0) to (8.8935888 10.892377 31.516563) with tilt (-8.8935888 0 0)
  triclinic box = (0 0 0) to (8.8935888 10.892377 31.516563) with tilt (-8.8935888 0 0)
  triclinic box = (0 0 0) to (8.8935888 10.892377 31.516563) with tilt (-8.8935888 0 0)
echo none
run 0
Per MPI rank memory allocation (min/avg/max) = 3.33 | 3.33 | 3.33 Mbytes
    PotEng          Pxx           E_mol          E_coul    
-514.1222      -1495.5527      0              0            
Loop time of 7.5e-07 on 1 procs for 0 steps with 80 atoms

0.0% CPU use with 1 MPI tasks x no OpenMP threads

MPI task timing breakdown:
Section |  min time  |  avg time  |  max time  |%varavg| %total
---------------------------------------------------------------
Pair    | 0          | 0          | 0          |   0.0 |  0.00
Neigh   | 0          | 0          | 0          |   0.0 |  0.00
Comm    | 0          | 0          | 0          |   0.0 |  0.00
Output  | 0          | 0          | 0          |   0.0 |  0.00
Modify  | 0          | 0          | 0          |   0.0 |  0.00
Other   |            | 7.5e-07    |            |       |100.00

Nlocal:             80 ave          80 max          80 min
Histogram: 1 0 0 0 0 0 0 0 0 0
Nghost:            587 ave         587 max         587 min
Histogram: 1 0 0 0 0 0 0 0 0 0
Neighs:           4288 ave        4288 max        4288 min
Histogram: 1 0 0 0 0 0 0 0 0 0

Total # of neighbors = 4288
Ave neighs/atom = 53.6
Neighbor list builds = 0
Dangerous builds = 0
set atom * x 0.0 y 0.0 z 0.0
Setting atom values ...
  80 settings made for x
  80 settings made for y
  80 settings made for z
change_box all     x final 0 8.893735940143563 y final 0 10.892557480201894 z final 0 31.517084041280807      xy final -8.893735940143563 xz final 0.0 yz final 0.0 units box
Changing box ...
  triclinic box = (0 0 0) to (8.8937359 10.892377 31.516563) with tilt (-8.8935888 0 0)
  triclinic box = (0 0 0) to (8.8937359 10.892557 31.516563) with tilt (-8.8935888 0 0)
  triclinic box = (0 0 0) to (8.8937359 10.892557 31.517084) with tilt (-8.8935888 0 0)
  triclinic box = (0 0 0) to (8.8937359 10.892557 31.517084) with tilt (-8.8937359 0 0)
  triclinic box = (0 0 0) to (8.8937359 10.892557 31.517084) with tilt (-8.8937359 0 0)
  triclinic box = (0 0 0) to (8.8937359 10.892557 31.517084) with tilt (-8.8937359 0 0)
echo none
run 0
Per MPI rank memory allocation (min/avg/max) = 3.33 | 3.33 | 3.33 Mbytes
    PotEng          Pxx           E_mol          E_coul    
-514.12224     -1500.5489      0              0            
Loop time of 7.09e-07 on 1 procs for 0 steps with 80 atoms

0.0% CPU use with 1 MPI tasks x no OpenMP threads

MPI task timing breakdown:
Section |  min time  |  avg time  |  max time  |%varavg| %total
---------------------------------------------------------------
Pair    | 0          | 0          | 0          |   0.0 |  0.00
Neigh   | 0          | 0          | 0          |   0.0 |  0.00
Comm    | 0          | 0          | 0          |   0.0 |  0.00
Output  | 0          | 0          | 0          |   0.0 |  0.00
Modify  | 0          | 0          | 0          |   0.0 |  0.00
Other   |            | 7.09e-07   |            |       |100.00

Nlocal:             80 ave          80 max          80 min
Histogram: 1 0 0 0 0 0 0 0 0 0
Nghost:            587 ave         587 max         587 min
Histogram: 1 0 0 0 0 0 0 0 0 0
Neighs:           4288 ave        4288 max        4288 min
Histogram: 1 0 0 0 0 0 0 0 0 0

Total # of neighbors = 4288
Ave neighs/atom = 53.6
Neighbor list builds = 0
Dangerous builds = 0
set atom * x 0.0 y 0.0 z 0.0
Setting atom values ...
  80 settings made for x
  80 settings made for y
  80 settings made for z
change_box all     x final 0 8.89368913603383 y final 0 10.892500157108538 z final 0 31.51691817970476      xy final -8.89368913603383 xz final 0.0 yz final 0.0 units box
Changing box ...
  triclinic box = (0 0 0) to (8.8936891 10.892557 31.517084) with tilt (-8.8937359 0 0)
  triclinic box = (0 0 0) to (8.8936891 10.8925 31.517084) with tilt (-8.8937359 0 0)
  triclinic box = (0 0 0) to (8.8936891 10.8925 31.516918) with tilt (-8.8937359 0 0)
  triclinic box = (0 0 0) to (8.8936891 10.8925 31.516918) with tilt (-8.8936891 0 0)
  triclinic box = (0 0 0) to (8.8936891 10.8925 31.516918) with tilt (-8.8936891 0 0)
  triclinic box = (0 0 0) to (8.8936891 10.8925 31.516918) with tilt (-8.8936891 0 0)
echo none
run 0
Per MPI rank memory allocation (min/avg/max) = 3.33 | 3.33 | 3.33 Mbytes
    PotEng          Pxx           E_mol          E_coul    
-514.12224     -1498.9748      0              0            
Loop time of 1.292e-06 on 1 procs for 0 steps with 80 atoms

77.4% CPU use with 1 MPI tasks x no OpenMP threads

MPI task timing breakdown:
Section |  min time  |  avg time  |  max time  |%varavg| %total
---------------------------------------------------------------
Pair    | 0          | 0          | 0          |   0.0 |  0.00
Neigh   | 0          | 0          | 0          |   0.0 |  0.00
Comm    | 0          | 0          | 0          |   0.0 |  0.00
Output  | 0          | 0          | 0          |   0.0 |  0.00
Modify  | 0          | 0          | 0          |   0.0 |  0.00
Other   |            | 1.292e-06  |            |       |100.00

Nlocal:             80 ave          80 max          80 min
Histogram: 1 0 0 0 0 0 0 0 0 0
Nghost:            587 ave         587 max         587 min
Histogram: 1 0 0 0 0 0 0 0 0 0
Neighs:           4288 ave        4288 max        4288 min
Histogram: 1 0 0 0 0 0 0 0 0 0

Total # of neighbors = 4288
Ave neighs/atom = 53.6
Neighbor list builds = 0
Dangerous builds = 0
Total wall time: 0:00:05
