LAMMPS (23 Jun 2022 - Update 4)
units metal
atom_style atomic
atom_modify map array sort 0 0
boundary p p p
box tilt large
region cell prism    0 4.146 0 4.146 0 4.146     0.0 0.0 0.0     units box
create_box 1 cell
Created triclinic box = (0 0 0) to (4.146 4.146 4.146) with tilt (0 0 0)
  1 by 1 by 1 MPI processor grid
echo none
Created 4 atoms
  using lattice units in triclinic box = (0 0 0) to (4.146 4.146 4.146) with tilt (0 0 0)
  create_atoms CPU = 0.002 seconds
Setting atom values ...
  1 settings made for type
Setting atom values ...
  1 settings made for type
Setting atom values ...
  1 settings made for type
Setting atom values ...
  1 settings made for type
pair_style eam/alloy
pair_coeff * * potentials/Ag.eam.alloy Ag
Reading eam/alloy potential file potentials/Ag.eam.alloy with DATE: 2018-03-30
mass 1 107.868199972251517237964435480535
variable pxx equal pxx
variable pyy equal pyy
variable pzz equal pzz
variable pxy equal pxy
variable pxz equal pxz
variable pyz equal pyz
thermo_style custom pe pxx emol ecoul
variable fx atom fx
variable fy atom fy
variable fz atom fz
variable pe equal pe
neigh_modify delay 0 every 1 check yes
echo none
run 0
WARNING: No fixes with time integration, atoms won't move (src/src/verlet.cpp:60)
Neighbor list info ...
  update every 1 steps, delay 0 steps, check yes
  max neighbors/atom: 2000, page size: 100000
  master list distance cutoff = 8.4662927
  ghost atom cutoff = 8.4662927
  binsize = 4.2331463, bins = 1 1 1
  1 neighbor lists, perpetual/occasional/extra = 1 0 0
  (1) pair eam/alloy, perpetual
      attributes: half, newton on
      pair build: half/bin/newton/tri
      stencil: half/bin/3d/tri
      bin: standard
Per MPI rank memory allocation (min/avg/max) = 3.245 | 3.245 | 3.245 Mbytes
    PotEng          Pxx           E_mol          E_coul    
-11.364167     -38309.268      0              0            
Loop time of 1.333e-06 on 1 procs for 0 steps with 4 atoms

225.1% CPU use with 1 MPI tasks x no OpenMP threads

MPI task timing breakdown:
Section |  min time  |  avg time  |  max time  |%varavg| %total
---------------------------------------------------------------
Pair    | 0          | 0          | 0          |   0.0 |  0.00
Neigh   | 0          | 0          | 0          |   0.0 |  0.00
Comm    | 0          | 0          | 0          |   0.0 |  0.00
Output  | 0          | 0          | 0          |   0.0 |  0.00
Modify  | 0          | 0          | 0          |   0.0 |  0.00
Other   |            | 1.333e-06  |            |       |100.00

Nlocal:              4 ave           4 max           4 min
Histogram: 1 0 0 0 0 0 0 0 0 0
Nghost:            662 ave         662 max         662 min
Histogram: 1 0 0 0 0 0 0 0 0 0
Neighs:            280 ave         280 max         280 min
Histogram: 1 0 0 0 0 0 0 0 0 0

Total # of neighbors = 280
Ave neighs/atom = 70
Neighbor list builds = 0
Dangerous builds = 0
set atom * x 0.0 y 0.0 z 0.0
Setting atom values ...
  4 settings made for x
  4 settings made for y
  4 settings made for z
change_box all     x final 0 3.496419338273783 y final 0 3.496419338273783 z final 0 3.496419338273783      xy final 0.0 xz final 0.0 yz final 0.0 units box
Changing box ...
  triclinic box = (0 0 0) to (3.4964193 4.146 4.146) with tilt (0 0 0)
  triclinic box = (0 0 0) to (3.4964193 3.4964193 4.146) with tilt (0 0 0)
  triclinic box = (0 0 0) to (3.4964193 3.4964193 3.4964193) with tilt (0 0 0)
  triclinic box = (0 0 0) to (3.4964193 3.4964193 3.4964193) with tilt (0 0 0)
  triclinic box = (0 0 0) to (3.4964193 3.4964193 3.4964193) with tilt (0 0 0)
  triclinic box = (0 0 0) to (3.4964193 3.4964193 3.4964193) with tilt (0 0 0)
echo none
run 0
WARNING: No fixes with time integration, atoms won't move (src/src/verlet.cpp:60)
Per MPI rank memory allocation (min/avg/max) = 3.245 | 3.245 | 3.245 Mbytes
    PotEng          Pxx           E_mol          E_coul    
-3.7992418      1463191.8      0              0            
Loop time of 1.084e-06 on 1 procs for 0 steps with 4 atoms

0.0% CPU use with 1 MPI tasks x no OpenMP threads

MPI task timing breakdown:
Section |  min time  |  avg time  |  max time  |%varavg| %total
---------------------------------------------------------------
Pair    | 0          | 0          | 0          |   0.0 |  0.00
Neigh   | 0          | 0          | 0          |   0.0 |  0.00
Comm    | 0          | 0          | 0          |   0.0 |  0.00
Output  | 0          | 0          | 0          |   0.0 |  0.00
Modify  | 0          | 0          | 0          |   0.0 |  0.00
Other   |            | 1.084e-06  |            |       |100.00

Nlocal:              4 ave           4 max           4 min
Histogram: 1 0 0 0 0 0 0 0 0 0
Nghost:            662 ave         662 max         662 min
Histogram: 1 0 0 0 0 0 0 0 0 0
Neighs:            448 ave         448 max         448 min
Histogram: 1 0 0 0 0 0 0 0 0 0

Total # of neighbors = 448
Ave neighs/atom = 112
Neighbor list builds = 0
Dangerous builds = 0
set atom * x 0.0 y 0.0 z 0.0
Setting atom values ...
  4 settings made for x
  4 settings made for y
  4 settings made for z
change_box all     x final 0 4.097267360748947 y final 0 4.097267360748947 z final 0 4.097267360748947      xy final 0.0 xz final 0.0 yz final 0.0 units box
Changing box ...
  triclinic box = (0 0 0) to (4.0972674 3.4964193 3.4964193) with tilt (0 0 0)
  triclinic box = (0 0 0) to (4.0972674 4.0972674 3.4964193) with tilt (0 0 0)
  triclinic box = (0 0 0) to (4.0972674 4.0972674 4.0972674) with tilt (0 0 0)
  triclinic box = (0 0 0) to (4.0972674 4.0972674 4.0972674) with tilt (0 0 0)
  triclinic box = (0 0 0) to (4.0972674 4.0972674 4.0972674) with tilt (0 0 0)
  triclinic box = (0 0 0) to (4.0972674 4.0972674 4.0972674) with tilt (0 0 0)
echo none
run 0
WARNING: No fixes with time integration, atoms won't move (src/src/verlet.cpp:60)
Per MPI rank memory allocation (min/avg/max) = 3.245 | 3.245 | 3.245 Mbytes
    PotEng          Pxx           E_mol          E_coul    
-11.399292     -5725.9408      0              0            
Loop time of 7.08e-07 on 1 procs for 0 steps with 4 atoms

0.0% CPU use with 1 MPI tasks x no OpenMP threads

MPI task timing breakdown:
Section |  min time  |  avg time  |  max time  |%varavg| %total
---------------------------------------------------------------
Pair    | 0          | 0          | 0          |   0.0 |  0.00
Neigh   | 0          | 0          | 0          |   0.0 |  0.00
Comm    | 0          | 0          | 0          |   0.0 |  0.00
Output  | 0          | 0          | 0          |   0.0 |  0.00
Modify  | 0          | 0          | 0          |   0.0 |  0.00
Other   |            | 7.08e-07   |            |       |100.00

Nlocal:              4 ave           4 max           4 min
Histogram: 1 0 0 0 0 0 0 0 0 0
Nghost:            662 ave         662 max         662 min
Histogram: 1 0 0 0 0 0 0 0 0 0
Neighs:            280 ave         280 max         280 min
Histogram: 1 0 0 0 0 0 0 0 0 0

Total # of neighbors = 280
Ave neighs/atom = 70
Neighbor list builds = 0
Dangerous builds = 0
set atom * x 0.0 y 0.0 z 0.0
Setting atom values ...
  4 settings made for x
  4 settings made for y
  4 settings made for z
change_box all     x final 0 4.089108828892592 y final 0 4.089108828892592 z final 0 4.089108828892592      xy final 0.0 xz final 0.0 yz final 0.0 units box
Changing box ...
  triclinic box = (0 0 0) to (4.0891088 4.0972674 4.0972674) with tilt (0 0 0)
  triclinic box = (0 0 0) to (4.0891088 4.0891088 4.0972674) with tilt (0 0 0)
  triclinic box = (0 0 0) to (4.0891088 4.0891088 4.0891088) with tilt (0 0 0)
  triclinic box = (0 0 0) to (4.0891088 4.0891088 4.0891088) with tilt (0 0 0)
  triclinic box = (0 0 0) to (4.0891088 4.0891088 4.0891088) with tilt (0 0 0)
  triclinic box = (0 0 0) to (4.0891088 4.0891088 4.0891088) with tilt (0 0 0)
echo none
run 0
WARNING: No fixes with time integration, atoms won't move (src/src/verlet.cpp:60)
Per MPI rank memory allocation (min/avg/max) = 3.245 | 3.245 | 3.245 Mbytes
    PotEng          Pxx           E_mol          E_coul    
-11.399995      407.68076      0              0            
Loop time of 9.17e-07 on 1 procs for 0 steps with 4 atoms

0.0% CPU use with 1 MPI tasks x no OpenMP threads

MPI task timing breakdown:
Section |  min time  |  avg time  |  max time  |%varavg| %total
---------------------------------------------------------------
Pair    | 0          | 0          | 0          |   0.0 |  0.00
Neigh   | 0          | 0          | 0          |   0.0 |  0.00
Comm    | 0          | 0          | 0          |   0.0 |  0.00
Output  | 0          | 0          | 0          |   0.0 |  0.00
Modify  | 0          | 0          | 0          |   0.0 |  0.00
Other   |            | 9.17e-07   |            |       |100.00

Nlocal:              4 ave           4 max           4 min
Histogram: 1 0 0 0 0 0 0 0 0 0
Nghost:            662 ave         662 max         662 min
Histogram: 1 0 0 0 0 0 0 0 0 0
Neighs:            280 ave         280 max         280 min
Histogram: 1 0 0 0 0 0 0 0 0 0

Total # of neighbors = 280
Ave neighs/atom = 70
Neighbor list builds = 0
Dangerous builds = 0
set atom * x 0.0 y 0.0 z 0.0
Setting atom values ...
  4 settings made for x
  4 settings made for y
  4 settings made for z
change_box all     x final 0 4.0896475775408865 y final 0 4.0896475775408865 z final 0 4.0896475775408865      xy final 0.0 xz final 0.0 yz final 0.0 units box
Changing box ...
  triclinic box = (0 0 0) to (4.0896476 4.0891088 4.0891088) with tilt (0 0 0)
  triclinic box = (0 0 0) to (4.0896476 4.0896476 4.0891088) with tilt (0 0 0)
  triclinic box = (0 0 0) to (4.0896476 4.0896476 4.0896476) with tilt (0 0 0)
  triclinic box = (0 0 0) to (4.0896476 4.0896476 4.0896476) with tilt (0 0 0)
  triclinic box = (0 0 0) to (4.0896476 4.0896476 4.0896476) with tilt (0 0 0)
  triclinic box = (0 0 0) to (4.0896476 4.0896476 4.0896476) with tilt (0 0 0)
echo none
run 0
WARNING: No fixes with time integration, atoms won't move (src/src/verlet.cpp:60)
Per MPI rank memory allocation (min/avg/max) = 3.245 | 3.245 | 3.245 Mbytes
    PotEng          Pxx           E_mol          E_coul    
-11.399981      1.5683567      0              0            
Loop time of 1.333e-06 on 1 procs for 0 steps with 4 atoms

300.1% CPU use with 1 MPI tasks x no OpenMP threads

MPI task timing breakdown:
Section |  min time  |  avg time  |  max time  |%varavg| %total
---------------------------------------------------------------
Pair    | 0          | 0          | 0          |   0.0 |  0.00
Neigh   | 0          | 0          | 0          |   0.0 |  0.00
Comm    | 0          | 0          | 0          |   0.0 |  0.00
Output  | 0          | 0          | 0          |   0.0 |  0.00
Modify  | 0          | 0          | 0          |   0.0 |  0.00
Other   |            | 1.333e-06  |            |       |100.00

Nlocal:              4 ave           4 max           4 min
Histogram: 1 0 0 0 0 0 0 0 0 0
Nghost:            662 ave         662 max         662 min
Histogram: 1 0 0 0 0 0 0 0 0 0
Neighs:            280 ave         280 max         280 min
Histogram: 1 0 0 0 0 0 0 0 0 0

Total # of neighbors = 280
Ave neighs/atom = 70
Neighbor list builds = 0
Dangerous builds = 0
set atom * x 0.0 y 0.0 z 0.0
Setting atom values ...
  4 settings made for x
  4 settings made for y
  4 settings made for z
change_box all     x final 0 4.089143225666127 y final 0 4.089143225666127 z final 0 4.089143225666127      xy final 0.0 xz final 0.0 yz final 0.0 units box
Changing box ...
  triclinic box = (0 0 0) to (4.0891432 4.0896476 4.0896476) with tilt (0 0 0)
  triclinic box = (0 0 0) to (4.0891432 4.0891432 4.0896476) with tilt (0 0 0)
  triclinic box = (0 0 0) to (4.0891432 4.0891432 4.0891432) with tilt (0 0 0)
  triclinic box = (0 0 0) to (4.0891432 4.0891432 4.0891432) with tilt (0 0 0)
  triclinic box = (0 0 0) to (4.0891432 4.0891432 4.0891432) with tilt (0 0 0)
  triclinic box = (0 0 0) to (4.0891432 4.0891432 4.0891432) with tilt (0 0 0)
echo none
run 0
WARNING: No fixes with time integration, atoms won't move (src/src/verlet.cpp:60)
Per MPI rank memory allocation (min/avg/max) = 3.245 | 3.245 | 3.245 Mbytes
    PotEng          Pxx           E_mol          E_coul    
-11.399996      381.38429      0              0            
Loop time of 1.291e-06 on 1 procs for 0 steps with 4 atoms

154.9% CPU use with 1 MPI tasks x no OpenMP threads

MPI task timing breakdown:
Section |  min time  |  avg time  |  max time  |%varavg| %total
---------------------------------------------------------------
Pair    | 0          | 0          | 0          |   0.0 |  0.00
Neigh   | 0          | 0          | 0          |   0.0 |  0.00
Comm    | 0          | 0          | 0          |   0.0 |  0.00
Output  | 0          | 0          | 0          |   0.0 |  0.00
Modify  | 0          | 0          | 0          |   0.0 |  0.00
Other   |            | 1.291e-06  |            |       |100.00

Nlocal:              4 ave           4 max           4 min
Histogram: 1 0 0 0 0 0 0 0 0 0
Nghost:            662 ave         662 max         662 min
Histogram: 1 0 0 0 0 0 0 0 0 0
Neighs:            280 ave         280 max         280 min
Histogram: 1 0 0 0 0 0 0 0 0 0

Total # of neighbors = 280
Ave neighs/atom = 70
Neighbor list builds = 0
Dangerous builds = 0
set atom * x 0.0 y 0.0 z 0.0
Setting atom values ...
  4 settings made for x
  4 settings made for y
  4 settings made for z
change_box all     x final 0 4.089476090924297 y final 0 4.089476090924297 z final 0 4.089476090924297      xy final 0.0 xz final 0.0 yz final 0.0 units box
Changing box ...
  triclinic box = (0 0 0) to (4.0894761 4.0891432 4.0891432) with tilt (0 0 0)
  triclinic box = (0 0 0) to (4.0894761 4.0894761 4.0891432) with tilt (0 0 0)
  triclinic box = (0 0 0) to (4.0894761 4.0894761 4.0894761) with tilt (0 0 0)
  triclinic box = (0 0 0) to (4.0894761 4.0894761 4.0894761) with tilt (0 0 0)
  triclinic box = (0 0 0) to (4.0894761 4.0894761 4.0894761) with tilt (0 0 0)
  triclinic box = (0 0 0) to (4.0894761 4.0894761 4.0894761) with tilt (0 0 0)
echo none
run 0
WARNING: No fixes with time integration, atoms won't move (src/src/verlet.cpp:60)
Per MPI rank memory allocation (min/avg/max) = 3.245 | 3.245 | 3.245 Mbytes
    PotEng          Pxx           E_mol          E_coul    
-11.399998      127.08304      0              0            
Loop time of 1e-06 on 1 procs for 0 steps with 4 atoms

200.0% CPU use with 1 MPI tasks x no OpenMP threads

MPI task timing breakdown:
Section |  min time  |  avg time  |  max time  |%varavg| %total
---------------------------------------------------------------
Pair    | 0          | 0          | 0          |   0.0 |  0.00
Neigh   | 0          | 0          | 0          |   0.0 |  0.00
Comm    | 0          | 0          | 0          |   0.0 |  0.00
Output  | 0          | 0          | 0          |   0.0 |  0.00
Modify  | 0          | 0          | 0          |   0.0 |  0.00
Other   |            | 1e-06      |            |       |100.00

Nlocal:              4 ave           4 max           4 min
Histogram: 1 0 0 0 0 0 0 0 0 0
Nghost:            662 ave         662 max         662 min
Histogram: 1 0 0 0 0 0 0 0 0 0
Neighs:            280 ave         280 max         280 min
Histogram: 1 0 0 0 0 0 0 0 0 0

Total # of neighbors = 280
Ave neighs/atom = 70
Neighbor list builds = 0
Dangerous builds = 0
set atom * x 0.0 y 0.0 z 0.0
Setting atom values ...
  4 settings made for x
  4 settings made for y
  4 settings made for z
change_box all     x final 0 3.680528481831867 y final 0 3.680528481831867 z final 0 3.680528481831867      xy final 0.0 xz final 0.0 yz final 0.0 units box
Changing box ...
  triclinic box = (0 0 0) to (3.6805285 4.0894761 4.0894761) with tilt (0 0 0)
  triclinic box = (0 0 0) to (3.6805285 3.6805285 4.0894761) with tilt (0 0 0)
  triclinic box = (0 0 0) to (3.6805285 3.6805285 3.6805285) with tilt (0 0 0)
  triclinic box = (0 0 0) to (3.6805285 3.6805285 3.6805285) with tilt (0 0 0)
  triclinic box = (0 0 0) to (3.6805285 3.6805285 3.6805285) with tilt (0 0 0)
  triclinic box = (0 0 0) to (3.6805285 3.6805285 3.6805285) with tilt (0 0 0)
echo none
run 0
WARNING: No fixes with time integration, atoms won't move (src/src/verlet.cpp:60)
Per MPI rank memory allocation (min/avg/max) = 3.245 | 3.245 | 3.245 Mbytes
    PotEng          Pxx           E_mol          E_coul    
-8.3931782      697569.67      0              0            
Loop time of 1.583e-06 on 1 procs for 0 steps with 4 atoms

189.5% CPU use with 1 MPI tasks x no OpenMP threads

MPI task timing breakdown:
Section |  min time  |  avg time  |  max time  |%varavg| %total
---------------------------------------------------------------
Pair    | 0          | 0          | 0          |   0.0 |  0.00
Neigh   | 0          | 0          | 0          |   0.0 |  0.00
Comm    | 0          | 0          | 0          |   0.0 |  0.00
Output  | 0          | 0          | 0          |   0.0 |  0.00
Modify  | 0          | 0          | 0          |   0.0 |  0.00
Other   |            | 1.583e-06  |            |       |100.00

Nlocal:              4 ave           4 max           4 min
Histogram: 1 0 0 0 0 0 0 0 0 0
Nghost:            662 ave         662 max         662 min
Histogram: 1 0 0 0 0 0 0 0 0 0
Neighs:            400 ave         400 max         400 min
Histogram: 1 0 0 0 0 0 0 0 0 0

Total # of neighbors = 400
Ave neighs/atom = 100
Neighbor list builds = 0
Dangerous builds = 0
set atom * x 0.0 y 0.0 z 0.0
Setting atom values ...
  4 settings made for x
  4 settings made for y
  4 settings made for z
change_box all     x final 0 3.7214232427411105 y final 0 3.7214232427411105 z final 0 3.7214232427411105      xy final 0.0 xz final 0.0 yz final 0.0 units box
Changing box ...
  triclinic box = (0 0 0) to (3.7214232 3.6805285 3.6805285) with tilt (0 0 0)
  triclinic box = (0 0 0) to (3.7214232 3.7214232 3.6805285) with tilt (0 0 0)
  triclinic box = (0 0 0) to (3.7214232 3.7214232 3.7214232) with tilt (0 0 0)
  triclinic box = (0 0 0) to (3.7214232 3.7214232 3.7214232) with tilt (0 0 0)
  triclinic box = (0 0 0) to (3.7214232 3.7214232 3.7214232) with tilt (0 0 0)
  triclinic box = (0 0 0) to (3.7214232 3.7214232 3.7214232) with tilt (0 0 0)
echo none
run 0
WARNING: No fixes with time integration, atoms won't move (src/src/verlet.cpp:60)
Per MPI rank memory allocation (min/avg/max) = 3.245 | 3.245 | 3.245 Mbytes
    PotEng          Pxx           E_mol          E_coul    
-9.0623245      581215.88      0              0            
Loop time of 1.167e-06 on 1 procs for 0 steps with 4 atoms

0.0% CPU use with 1 MPI tasks x no OpenMP threads

MPI task timing breakdown:
Section |  min time  |  avg time  |  max time  |%varavg| %total
---------------------------------------------------------------
Pair    | 0          | 0          | 0          |   0.0 |  0.00
Neigh   | 0          | 0          | 0          |   0.0 |  0.00
Comm    | 0          | 0          | 0          |   0.0 |  0.00
Output  | 0          | 0          | 0          |   0.0 |  0.00
Modify  | 0          | 0          | 0          |   0.0 |  0.00
Other   |            | 1.167e-06  |            |       |100.00

Nlocal:              4 ave           4 max           4 min
Histogram: 1 0 0 0 0 0 0 0 0 0
Nghost:            662 ave         662 max         662 min
Histogram: 1 0 0 0 0 0 0 0 0 0
Neighs:            400 ave         400 max         400 min
Histogram: 1 0 0 0 0 0 0 0 0 0

Total # of neighbors = 400
Ave neighs/atom = 100
Neighbor list builds = 0
Dangerous builds = 0
set atom * x 0.0 y 0.0 z 0.0
Setting atom values ...
  4 settings made for x
  4 settings made for y
  4 settings made for z
change_box all     x final 0 3.7623180036503534 y final 0 3.7623180036503534 z final 0 3.7623180036503534      xy final 0.0 xz final 0.0 yz final 0.0 units box
Changing box ...
  triclinic box = (0 0 0) to (3.762318 3.7214232 3.7214232) with tilt (0 0 0)
  triclinic box = (0 0 0) to (3.762318 3.762318 3.7214232) with tilt (0 0 0)
  triclinic box = (0 0 0) to (3.762318 3.762318 3.762318) with tilt (0 0 0)
  triclinic box = (0 0 0) to (3.762318 3.762318 3.762318) with tilt (0 0 0)
  triclinic box = (0 0 0) to (3.762318 3.762318 3.762318) with tilt (0 0 0)
  triclinic box = (0 0 0) to (3.762318 3.762318 3.762318) with tilt (0 0 0)
echo none
run 0
WARNING: No fixes with time integration, atoms won't move (src/src/verlet.cpp:60)
Per MPI rank memory allocation (min/avg/max) = 3.245 | 3.245 | 3.245 Mbytes
    PotEng          Pxx           E_mol          E_coul    
-9.6289547      478216.02      0              0            
Loop time of 7.09e-07 on 1 procs for 0 steps with 4 atoms

141.0% CPU use with 1 MPI tasks x no OpenMP threads

MPI task timing breakdown:
Section |  min time  |  avg time  |  max time  |%varavg| %total
---------------------------------------------------------------
Pair    | 0          | 0          | 0          |   0.0 |  0.00
Neigh   | 0          | 0          | 0          |   0.0 |  0.00
Comm    | 0          | 0          | 0          |   0.0 |  0.00
Output  | 0          | 0          | 0          |   0.0 |  0.00
Modify  | 0          | 0          | 0          |   0.0 |  0.00
Other   |            | 7.09e-07   |            |       |100.00

Nlocal:              4 ave           4 max           4 min
Histogram: 1 0 0 0 0 0 0 0 0 0
Nghost:            662 ave         662 max         662 min
Histogram: 1 0 0 0 0 0 0 0 0 0
Neighs:            400 ave         400 max         400 min
Histogram: 1 0 0 0 0 0 0 0 0 0

Total # of neighbors = 400
Ave neighs/atom = 100
Neighbor list builds = 0
Dangerous builds = 0
set atom * x 0.0 y 0.0 z 0.0
Setting atom values ...
  4 settings made for x
  4 settings made for y
  4 settings made for z
change_box all     x final 0 3.8032127645595963 y final 0 3.8032127645595963 z final 0 3.8032127645595963      xy final 0.0 xz final 0.0 yz final 0.0 units box
Changing box ...
  triclinic box = (0 0 0) to (3.8032128 3.762318 3.762318) with tilt (0 0 0)
  triclinic box = (0 0 0) to (3.8032128 3.8032128 3.762318) with tilt (0 0 0)
  triclinic box = (0 0 0) to (3.8032128 3.8032128 3.8032128) with tilt (0 0 0)
  triclinic box = (0 0 0) to (3.8032128 3.8032128 3.8032128) with tilt (0 0 0)
  triclinic box = (0 0 0) to (3.8032128 3.8032128 3.8032128) with tilt (0 0 0)
  triclinic box = (0 0 0) to (3.8032128 3.8032128 3.8032128) with tilt (0 0 0)
echo none
run 0
WARNING: No fixes with time integration, atoms won't move (src/src/verlet.cpp:60)
Per MPI rank memory allocation (min/avg/max) = 3.245 | 3.245 | 3.245 Mbytes
    PotEng          Pxx           E_mol          E_coul    
-10.101693      386801.46      0              0            
Loop time of 1.208e-06 on 1 procs for 0 steps with 4 atoms

248.3% CPU use with 1 MPI tasks x no OpenMP threads

MPI task timing breakdown:
Section |  min time  |  avg time  |  max time  |%varavg| %total
---------------------------------------------------------------
Pair    | 0          | 0          | 0          |   0.0 |  0.00
Neigh   | 0          | 0          | 0          |   0.0 |  0.00
Comm    | 0          | 0          | 0          |   0.0 |  0.00
Output  | 0          | 0          | 0          |   0.0 |  0.00
Modify  | 0          | 0          | 0          |   0.0 |  0.00
Other   |            | 1.208e-06  |            |       |100.00

Nlocal:              4 ave           4 max           4 min
Histogram: 1 0 0 0 0 0 0 0 0 0
Nghost:            662 ave         662 max         662 min
Histogram: 1 0 0 0 0 0 0 0 0 0
Neighs:            352 ave         352 max         352 min
Histogram: 1 0 0 0 0 0 0 0 0 0

Total # of neighbors = 352
Ave neighs/atom = 88
Neighbor list builds = 0
Dangerous builds = 0
set atom * x 0.0 y 0.0 z 0.0
Setting atom values ...
  4 settings made for x
  4 settings made for y
  4 settings made for z
change_box all     x final 0 3.8441075254688393 y final 0 3.8441075254688393 z final 0 3.8441075254688393      xy final 0.0 xz final 0.0 yz final 0.0 units box
Changing box ...
  triclinic box = (0 0 0) to (3.8441075 3.8032128 3.8032128) with tilt (0 0 0)
  triclinic box = (0 0 0) to (3.8441075 3.8441075 3.8032128) with tilt (0 0 0)
  triclinic box = (0 0 0) to (3.8441075 3.8441075 3.8441075) with tilt (0 0 0)
  triclinic box = (0 0 0) to (3.8441075 3.8441075 3.8441075) with tilt (0 0 0)
  triclinic box = (0 0 0) to (3.8441075 3.8441075 3.8441075) with tilt (0 0 0)
  triclinic box = (0 0 0) to (3.8441075 3.8441075 3.8441075) with tilt (0 0 0)
echo none
run 0
WARNING: No fixes with time integration, atoms won't move (src/src/verlet.cpp:60)
Per MPI rank memory allocation (min/avg/max) = 3.245 | 3.245 | 3.245 Mbytes
    PotEng          Pxx           E_mol          E_coul    
-10.488247      305668.8       0              0            
Loop time of 5.41e-07 on 1 procs for 0 steps with 4 atoms

0.0% CPU use with 1 MPI tasks x no OpenMP threads

MPI task timing breakdown:
Section |  min time  |  avg time  |  max time  |%varavg| %total
---------------------------------------------------------------
Pair    | 0          | 0          | 0          |   0.0 |  0.00
Neigh   | 0          | 0          | 0          |   0.0 |  0.00
Comm    | 0          | 0          | 0          |   0.0 |  0.00
Output  | 0          | 0          | 0          |   0.0 |  0.00
Modify  | 0          | 0          | 0          |   0.0 |  0.00
Other   |            | 5.41e-07   |            |       |100.00

Nlocal:              4 ave           4 max           4 min
Histogram: 1 0 0 0 0 0 0 0 0 0
Nghost:            662 ave         662 max         662 min
Histogram: 1 0 0 0 0 0 0 0 0 0
Neighs:            352 ave         352 max         352 min
Histogram: 1 0 0 0 0 0 0 0 0 0

Total # of neighbors = 352
Ave neighs/atom = 88
Neighbor list builds = 0
Dangerous builds = 0
set atom * x 0.0 y 0.0 z 0.0
Setting atom values ...
  4 settings made for x
  4 settings made for y
  4 settings made for z
change_box all     x final 0 3.885002286378082 y final 0 3.885002286378082 z final 0 3.885002286378082      xy final 0.0 xz final 0.0 yz final 0.0 units box
Changing box ...
  triclinic box = (0 0 0) to (3.8850023 3.8441075 3.8441075) with tilt (0 0 0)
  triclinic box = (0 0 0) to (3.8850023 3.8850023 3.8441075) with tilt (0 0 0)
  triclinic box = (0 0 0) to (3.8850023 3.8850023 3.8850023) with tilt (0 0 0)
  triclinic box = (0 0 0) to (3.8850023 3.8850023 3.8850023) with tilt (0 0 0)
  triclinic box = (0 0 0) to (3.8850023 3.8850023 3.8850023) with tilt (0 0 0)
  triclinic box = (0 0 0) to (3.8850023 3.8850023 3.8850023) with tilt (0 0 0)
echo none
run 0
WARNING: No fixes with time integration, atoms won't move (src/src/verlet.cpp:60)
Per MPI rank memory allocation (min/avg/max) = 3.245 | 3.245 | 3.245 Mbytes
    PotEng          Pxx           E_mol          E_coul    
-10.795765      233877.91      0              0            
Loop time of 1.417e-06 on 1 procs for 0 steps with 4 atoms

141.1% CPU use with 1 MPI tasks x no OpenMP threads

MPI task timing breakdown:
Section |  min time  |  avg time  |  max time  |%varavg| %total
---------------------------------------------------------------
Pair    | 0          | 0          | 0          |   0.0 |  0.00
Neigh   | 0          | 0          | 0          |   0.0 |  0.00
Comm    | 0          | 0          | 0          |   0.0 |  0.00
Output  | 0          | 0          | 0          |   0.0 |  0.00
Modify  | 0          | 0          | 0          |   0.0 |  0.00
Other   |            | 1.417e-06  |            |       |100.00

Nlocal:              4 ave           4 max           4 min
Histogram: 1 0 0 0 0 0 0 0 0 0
Nghost:            662 ave         662 max         662 min
Histogram: 1 0 0 0 0 0 0 0 0 0
Neighs:            352 ave         352 max         352 min
Histogram: 1 0 0 0 0 0 0 0 0 0

Total # of neighbors = 352
Ave neighs/atom = 88
Neighbor list builds = 0
Dangerous builds = 0
set atom * x 0.0 y 0.0 z 0.0
Setting atom values ...
  4 settings made for x
  4 settings made for y
  4 settings made for z
change_box all     x final 0 3.925897047287325 y final 0 3.925897047287325 z final 0 3.925897047287325      xy final 0.0 xz final 0.0 yz final 0.0 units box
Changing box ...
  triclinic box = (0 0 0) to (3.925897 3.8850023 3.8850023) with tilt (0 0 0)
  triclinic box = (0 0 0) to (3.925897 3.925897 3.8850023) with tilt (0 0 0)
  triclinic box = (0 0 0) to (3.925897 3.925897 3.925897) with tilt (0 0 0)
  triclinic box = (0 0 0) to (3.925897 3.925897 3.925897) with tilt (0 0 0)
  triclinic box = (0 0 0) to (3.925897 3.925897 3.925897) with tilt (0 0 0)
  triclinic box = (0 0 0) to (3.925897 3.925897 3.925897) with tilt (0 0 0)
echo none
run 0
WARNING: No fixes with time integration, atoms won't move (src/src/verlet.cpp:60)
Per MPI rank memory allocation (min/avg/max) = 3.245 | 3.245 | 3.245 Mbytes
    PotEng          Pxx           E_mol          E_coul    
-11.031132      170799.14      0              0            
Loop time of 6.67e-07 on 1 procs for 0 steps with 4 atoms

0.0% CPU use with 1 MPI tasks x no OpenMP threads

MPI task timing breakdown:
Section |  min time  |  avg time  |  max time  |%varavg| %total
---------------------------------------------------------------
Pair    | 0          | 0          | 0          |   0.0 |  0.00
Neigh   | 0          | 0          | 0          |   0.0 |  0.00
Comm    | 0          | 0          | 0          |   0.0 |  0.00
Output  | 0          | 0          | 0          |   0.0 |  0.00
Modify  | 0          | 0          | 0          |   0.0 |  0.00
Other   |            | 6.67e-07   |            |       |100.00

Nlocal:              4 ave           4 max           4 min
Histogram: 1 0 0 0 0 0 0 0 0 0
Nghost:            662 ave         662 max         662 min
Histogram: 1 0 0 0 0 0 0 0 0 0
Neighs:            352 ave         352 max         352 min
Histogram: 1 0 0 0 0 0 0 0 0 0

Total # of neighbors = 352
Ave neighs/atom = 88
Neighbor list builds = 0
Dangerous builds = 0
set atom * x 0.0 y 0.0 z 0.0
Setting atom values ...
  4 settings made for x
  4 settings made for y
  4 settings made for z
change_box all     x final 0 3.9667918081965685 y final 0 3.9667918081965685 z final 0 3.9667918081965685      xy final 0.0 xz final 0.0 yz final 0.0 units box
Changing box ...
  triclinic box = (0 0 0) to (3.9667918 3.925897 3.925897) with tilt (0 0 0)
  triclinic box = (0 0 0) to (3.9667918 3.9667918 3.925897) with tilt (0 0 0)
  triclinic box = (0 0 0) to (3.9667918 3.9667918 3.9667918) with tilt (0 0 0)
  triclinic box = (0 0 0) to (3.9667918 3.9667918 3.9667918) with tilt (0 0 0)
  triclinic box = (0 0 0) to (3.9667918 3.9667918 3.9667918) with tilt (0 0 0)
  triclinic box = (0 0 0) to (3.9667918 3.9667918 3.9667918) with tilt (0 0 0)
echo none
run 0
WARNING: No fixes with time integration, atoms won't move (src/src/verlet.cpp:60)
Per MPI rank memory allocation (min/avg/max) = 3.245 | 3.245 | 3.245 Mbytes
    PotEng          Pxx           E_mol          E_coul    
-11.201252      116069.93      0              0            
Loop time of 9.16e-07 on 1 procs for 0 steps with 4 atoms

109.2% CPU use with 1 MPI tasks x no OpenMP threads

MPI task timing breakdown:
Section |  min time  |  avg time  |  max time  |%varavg| %total
---------------------------------------------------------------
Pair    | 0          | 0          | 0          |   0.0 |  0.00
Neigh   | 0          | 0          | 0          |   0.0 |  0.00
Comm    | 0          | 0          | 0          |   0.0 |  0.00
Output  | 0          | 0          | 0          |   0.0 |  0.00
Modify  | 0          | 0          | 0          |   0.0 |  0.00
Other   |            | 9.16e-07   |            |       |100.00

Nlocal:              4 ave           4 max           4 min
Histogram: 1 0 0 0 0 0 0 0 0 0
Nghost:            662 ave         662 max         662 min
Histogram: 1 0 0 0 0 0 0 0 0 0
Neighs:            352 ave         352 max         352 min
Histogram: 1 0 0 0 0 0 0 0 0 0

Total # of neighbors = 352
Ave neighs/atom = 88
Neighbor list builds = 0
Dangerous builds = 0
set atom * x 0.0 y 0.0 z 0.0
Setting atom values ...
  4 settings made for x
  4 settings made for y
  4 settings made for z
change_box all     x final 0 4.007686569105811 y final 0 4.007686569105811 z final 0 4.007686569105811      xy final 0.0 xz final 0.0 yz final 0.0 units box
Changing box ...
  triclinic box = (0 0 0) to (4.0076866 3.9667918 3.9667918) with tilt (0 0 0)
  triclinic box = (0 0 0) to (4.0076866 4.0076866 3.9667918) with tilt (0 0 0)
  triclinic box = (0 0 0) to (4.0076866 4.0076866 4.0076866) with tilt (0 0 0)
  triclinic box = (0 0 0) to (4.0076866 4.0076866 4.0076866) with tilt (0 0 0)
  triclinic box = (0 0 0) to (4.0076866 4.0076866 4.0076866) with tilt (0 0 0)
  triclinic box = (0 0 0) to (4.0076866 4.0076866 4.0076866) with tilt (0 0 0)
echo none
run 0
WARNING: No fixes with time integration, atoms won't move (src/src/verlet.cpp:60)
Per MPI rank memory allocation (min/avg/max) = 3.245 | 3.245 | 3.245 Mbytes
    PotEng          Pxx           E_mol          E_coul    
-11.314067      71681.649      0              0            
Loop time of 9.17e-07 on 1 procs for 0 steps with 4 atoms

109.1% CPU use with 1 MPI tasks x no OpenMP threads

MPI task timing breakdown:
Section |  min time  |  avg time  |  max time  |%varavg| %total
---------------------------------------------------------------
Pair    | 0          | 0          | 0          |   0.0 |  0.00
Neigh   | 0          | 0          | 0          |   0.0 |  0.00
Comm    | 0          | 0          | 0          |   0.0 |  0.00
Output  | 0          | 0          | 0          |   0.0 |  0.00
Modify  | 0          | 0          | 0          |   0.0 |  0.00
Other   |            | 9.17e-07   |            |       |100.00

Nlocal:              4 ave           4 max           4 min
Histogram: 1 0 0 0 0 0 0 0 0 0
Nghost:            662 ave         662 max         662 min
Histogram: 1 0 0 0 0 0 0 0 0 0
Neighs:            280 ave         280 max         280 min
Histogram: 1 0 0 0 0 0 0 0 0 0

Total # of neighbors = 280
Ave neighs/atom = 70
Neighbor list builds = 0
Dangerous builds = 0
set atom * x 0.0 y 0.0 z 0.0
Setting atom values ...
  4 settings made for x
  4 settings made for y
  4 settings made for z
change_box all     x final 0 4.048581330015054 y final 0 4.048581330015054 z final 0 4.048581330015054      xy final 0.0 xz final 0.0 yz final 0.0 units box
Changing box ...
  triclinic box = (0 0 0) to (4.0485813 4.0076866 4.0076866) with tilt (0 0 0)
  triclinic box = (0 0 0) to (4.0485813 4.0485813 4.0076866) with tilt (0 0 0)
  triclinic box = (0 0 0) to (4.0485813 4.0485813 4.0485813) with tilt (0 0 0)
  triclinic box = (0 0 0) to (4.0485813 4.0485813 4.0485813) with tilt (0 0 0)
  triclinic box = (0 0 0) to (4.0485813 4.0485813 4.0485813) with tilt (0 0 0)
  triclinic box = (0 0 0) to (4.0485813 4.0485813 4.0485813) with tilt (0 0 0)
echo none
run 0
WARNING: No fixes with time integration, atoms won't move (src/src/verlet.cpp:60)
Per MPI rank memory allocation (min/avg/max) = 3.245 | 3.245 | 3.245 Mbytes
    PotEng          Pxx           E_mol          E_coul    
-11.379093      33750.73       0              0            
Loop time of 9.58e-07 on 1 procs for 0 steps with 4 atoms

104.4% CPU use with 1 MPI tasks x no OpenMP threads

MPI task timing breakdown:
Section |  min time  |  avg time  |  max time  |%varavg| %total
---------------------------------------------------------------
Pair    | 0          | 0          | 0          |   0.0 |  0.00
Neigh   | 0          | 0          | 0          |   0.0 |  0.00
Comm    | 0          | 0          | 0          |   0.0 |  0.00
Output  | 0          | 0          | 0          |   0.0 |  0.00
Modify  | 0          | 0          | 0          |   0.0 |  0.00
Other   |            | 9.58e-07   |            |       |100.00

Nlocal:              4 ave           4 max           4 min
Histogram: 1 0 0 0 0 0 0 0 0 0
Nghost:            662 ave         662 max         662 min
Histogram: 1 0 0 0 0 0 0 0 0 0
Neighs:            280 ave         280 max         280 min
Histogram: 1 0 0 0 0 0 0 0 0 0

Total # of neighbors = 280
Ave neighs/atom = 70
Neighbor list builds = 0
Dangerous builds = 0
set atom * x 0.0 y 0.0 z 0.0
Setting atom values ...
  4 settings made for x
  4 settings made for y
  4 settings made for z
change_box all     x final 0 4.089476090924297 y final 0 4.089476090924297 z final 0 4.089476090924297      xy final 0.0 xz final 0.0 yz final 0.0 units box
Changing box ...
  triclinic box = (0 0 0) to (4.0894761 4.0485813 4.0485813) with tilt (0 0 0)
  triclinic box = (0 0 0) to (4.0894761 4.0894761 4.0485813) with tilt (0 0 0)
  triclinic box = (0 0 0) to (4.0894761 4.0894761 4.0894761) with tilt (0 0 0)
  triclinic box = (0 0 0) to (4.0894761 4.0894761 4.0894761) with tilt (0 0 0)
  triclinic box = (0 0 0) to (4.0894761 4.0894761 4.0894761) with tilt (0 0 0)
  triclinic box = (0 0 0) to (4.0894761 4.0894761 4.0894761) with tilt (0 0 0)
echo none
run 0
WARNING: No fixes with time integration, atoms won't move (src/src/verlet.cpp:60)
Per MPI rank memory allocation (min/avg/max) = 3.245 | 3.245 | 3.245 Mbytes
    PotEng          Pxx           E_mol          E_coul    
-11.399998      127.08304      0              0            
Loop time of 9.58e-07 on 1 procs for 0 steps with 4 atoms

104.4% CPU use with 1 MPI tasks x no OpenMP threads

MPI task timing breakdown:
Section |  min time  |  avg time  |  max time  |%varavg| %total
---------------------------------------------------------------
Pair    | 0          | 0          | 0          |   0.0 |  0.00
Neigh   | 0          | 0          | 0          |   0.0 |  0.00
Comm    | 0          | 0          | 0          |   0.0 |  0.00
Output  | 0          | 0          | 0          |   0.0 |  0.00
Modify  | 0          | 0          | 0          |   0.0 |  0.00
Other   |            | 9.58e-07   |            |       |100.00

Nlocal:              4 ave           4 max           4 min
Histogram: 1 0 0 0 0 0 0 0 0 0
Nghost:            662 ave         662 max         662 min
Histogram: 1 0 0 0 0 0 0 0 0 0
Neighs:            280 ave         280 max         280 min
Histogram: 1 0 0 0 0 0 0 0 0 0

Total # of neighbors = 280
Ave neighs/atom = 70
Neighbor list builds = 0
Dangerous builds = 0
set atom * x 0.0 y 0.0 z 0.0
Setting atom values ...
  4 settings made for x
  4 settings made for y
  4 settings made for z
change_box all     x final 0 4.130370851833541 y final 0 4.130370851833541 z final 0 4.130370851833541      xy final 0.0 xz final 0.0 yz final 0.0 units box
Changing box ...
  triclinic box = (0 0 0) to (4.1303709 4.0894761 4.0894761) with tilt (0 0 0)
  triclinic box = (0 0 0) to (4.1303709 4.1303709 4.0894761) with tilt (0 0 0)
  triclinic box = (0 0 0) to (4.1303709 4.1303709 4.1303709) with tilt (0 0 0)
  triclinic box = (0 0 0) to (4.1303709 4.1303709 4.1303709) with tilt (0 0 0)
  triclinic box = (0 0 0) to (4.1303709 4.1303709 4.1303709) with tilt (0 0 0)
  triclinic box = (0 0 0) to (4.1303709 4.1303709 4.1303709) with tilt (0 0 0)
echo none
run 0
WARNING: No fixes with time integration, atoms won't move (src/src/verlet.cpp:60)
Per MPI rank memory allocation (min/avg/max) = 3.245 | 3.245 | 3.245 Mbytes
    PotEng          Pxx           E_mol          E_coul    
-11.380968     -28610.897      0              0            
Loop time of 7.08e-07 on 1 procs for 0 steps with 4 atoms

0.0% CPU use with 1 MPI tasks x no OpenMP threads

MPI task timing breakdown:
Section |  min time  |  avg time  |  max time  |%varavg| %total
---------------------------------------------------------------
Pair    | 0          | 0          | 0          |   0.0 |  0.00
Neigh   | 0          | 0          | 0          |   0.0 |  0.00
Comm    | 0          | 0          | 0          |   0.0 |  0.00
Output  | 0          | 0          | 0          |   0.0 |  0.00
Modify  | 0          | 0          | 0          |   0.0 |  0.00
Other   |            | 7.08e-07   |            |       |100.00

Nlocal:              4 ave           4 max           4 min
Histogram: 1 0 0 0 0 0 0 0 0 0
Nghost:            662 ave         662 max         662 min
Histogram: 1 0 0 0 0 0 0 0 0 0
Neighs:            280 ave         280 max         280 min
Histogram: 1 0 0 0 0 0 0 0 0 0

Total # of neighbors = 280
Ave neighs/atom = 70
Neighbor list builds = 0
Dangerous builds = 0
set atom * x 0.0 y 0.0 z 0.0
Setting atom values ...
  4 settings made for x
  4 settings made for y
  4 settings made for z
change_box all     x final 0 4.171265612742783 y final 0 4.171265612742783 z final 0 4.171265612742783      xy final 0.0 xz final 0.0 yz final 0.0 units box
Changing box ...
  triclinic box = (0 0 0) to (4.1712656 4.1303709 4.1303709) with tilt (0 0 0)
  triclinic box = (0 0 0) to (4.1712656 4.1712656 4.1303709) with tilt (0 0 0)
  triclinic box = (0 0 0) to (4.1712656 4.1712656 4.1712656) with tilt (0 0 0)
  triclinic box = (0 0 0) to (4.1712656 4.1712656 4.1712656) with tilt (0 0 0)
  triclinic box = (0 0 0) to (4.1712656 4.1712656 4.1712656) with tilt (0 0 0)
  triclinic box = (0 0 0) to (4.1712656 4.1712656 4.1712656) with tilt (0 0 0)
echo none
run 0
WARNING: No fixes with time integration, atoms won't move (src/src/verlet.cpp:60)
Per MPI rank memory allocation (min/avg/max) = 3.245 | 3.245 | 3.245 Mbytes
    PotEng          Pxx           E_mol          E_coul    
-11.32686      -52577.334      0              0            
Loop time of 7.92e-07 on 1 procs for 0 steps with 4 atoms

252.5% CPU use with 1 MPI tasks x no OpenMP threads

MPI task timing breakdown:
Section |  min time  |  avg time  |  max time  |%varavg| %total
---------------------------------------------------------------
Pair    | 0          | 0          | 0          |   0.0 |  0.00
Neigh   | 0          | 0          | 0          |   0.0 |  0.00
Comm    | 0          | 0          | 0          |   0.0 |  0.00
Output  | 0          | 0          | 0          |   0.0 |  0.00
Modify  | 0          | 0          | 0          |   0.0 |  0.00
Other   |            | 7.92e-07   |            |       |100.00

Nlocal:              4 ave           4 max           4 min
Histogram: 1 0 0 0 0 0 0 0 0 0
Nghost:            662 ave         662 max         662 min
Histogram: 1 0 0 0 0 0 0 0 0 0
Neighs:            280 ave         280 max         280 min
Histogram: 1 0 0 0 0 0 0 0 0 0

Total # of neighbors = 280
Ave neighs/atom = 70
Neighbor list builds = 0
Dangerous builds = 0
set atom * x 0.0 y 0.0 z 0.0
Setting atom values ...
  4 settings made for x
  4 settings made for y
  4 settings made for z
change_box all     x final 0 4.212160373652027 y final 0 4.212160373652027 z final 0 4.212160373652027      xy final 0.0 xz final 0.0 yz final 0.0 units box
Changing box ...
  triclinic box = (0 0 0) to (4.2121604 4.1712656 4.1712656) with tilt (0 0 0)
  triclinic box = (0 0 0) to (4.2121604 4.2121604 4.1712656) with tilt (0 0 0)
  triclinic box = (0 0 0) to (4.2121604 4.2121604 4.2121604) with tilt (0 0 0)
  triclinic box = (0 0 0) to (4.2121604 4.2121604 4.2121604) with tilt (0 0 0)
  triclinic box = (0 0 0) to (4.2121604 4.2121604 4.2121604) with tilt (0 0 0)
  triclinic box = (0 0 0) to (4.2121604 4.2121604 4.2121604) with tilt (0 0 0)
echo none
run 0
WARNING: No fixes with time integration, atoms won't move (src/src/verlet.cpp:60)
Per MPI rank memory allocation (min/avg/max) = 3.245 | 3.245 | 3.245 Mbytes
    PotEng          Pxx           E_mol          E_coul    
-11.242334     -72379.758      0              0            
Loop time of 7.92e-07 on 1 procs for 0 steps with 4 atoms

126.3% CPU use with 1 MPI tasks x no OpenMP threads

MPI task timing breakdown:
Section |  min time  |  avg time  |  max time  |%varavg| %total
---------------------------------------------------------------
Pair    | 0          | 0          | 0          |   0.0 |  0.00
Neigh   | 0          | 0          | 0          |   0.0 |  0.00
Comm    | 0          | 0          | 0          |   0.0 |  0.00
Output  | 0          | 0          | 0          |   0.0 |  0.00
Modify  | 0          | 0          | 0          |   0.0 |  0.00
Other   |            | 7.92e-07   |            |       |100.00

Nlocal:              4 ave           4 max           4 min
Histogram: 1 0 0 0 0 0 0 0 0 0
Nghost:            662 ave         662 max         662 min
Histogram: 1 0 0 0 0 0 0 0 0 0
Neighs:            280 ave         280 max         280 min
Histogram: 1 0 0 0 0 0 0 0 0 0

Total # of neighbors = 280
Ave neighs/atom = 70
Neighbor list builds = 0
Dangerous builds = 0
set atom * x 0.0 y 0.0 z 0.0
Setting atom values ...
  4 settings made for x
  4 settings made for y
  4 settings made for z
change_box all     x final 0 4.253055134561269 y final 0 4.253055134561269 z final 0 4.253055134561269      xy final 0.0 xz final 0.0 yz final 0.0 units box
Changing box ...
  triclinic box = (0 0 0) to (4.2530551 4.2121604 4.2121604) with tilt (0 0 0)
  triclinic box = (0 0 0) to (4.2530551 4.2530551 4.2121604) with tilt (0 0 0)
  triclinic box = (0 0 0) to (4.2530551 4.2530551 4.2530551) with tilt (0 0 0)
  triclinic box = (0 0 0) to (4.2530551 4.2530551 4.2530551) with tilt (0 0 0)
  triclinic box = (0 0 0) to (4.2530551 4.2530551 4.2530551) with tilt (0 0 0)
  triclinic box = (0 0 0) to (4.2530551 4.2530551 4.2530551) with tilt (0 0 0)
echo none
run 0
WARNING: No fixes with time integration, atoms won't move (src/src/verlet.cpp:60)
Per MPI rank memory allocation (min/avg/max) = 3.221 | 3.221 | 3.221 Mbytes
    PotEng          Pxx           E_mol          E_coul    
-11.131471     -88654.391      0              0            
Loop time of 8.75e-07 on 1 procs for 0 steps with 4 atoms

114.3% CPU use with 1 MPI tasks x no OpenMP threads

MPI task timing breakdown:
Section |  min time  |  avg time  |  max time  |%varavg| %total
---------------------------------------------------------------
Pair    | 0          | 0          | 0          |   0.0 |  0.00
Neigh   | 0          | 0          | 0          |   0.0 |  0.00
Comm    | 0          | 0          | 0          |   0.0 |  0.00
Output  | 0          | 0          | 0          |   0.0 |  0.00
Modify  | 0          | 0          | 0          |   0.0 |  0.00
Other   |            | 8.75e-07   |            |       |100.00

Nlocal:              4 ave           4 max           4 min
Histogram: 1 0 0 0 0 0 0 0 0 0
Nghost:            360 ave         360 max         360 min
Histogram: 1 0 0 0 0 0 0 0 0 0
Neighs:            268 ave         268 max         268 min
Histogram: 1 0 0 0 0 0 0 0 0 0

Total # of neighbors = 268
Ave neighs/atom = 67
Neighbor list builds = 0
Dangerous builds = 0
set atom * x 0.0 y 0.0 z 0.0
Setting atom values ...
  4 settings made for x
  4 settings made for y
  4 settings made for z
change_box all     x final 0 4.293949895470512 y final 0 4.293949895470512 z final 0 4.293949895470512      xy final 0.0 xz final 0.0 yz final 0.0 units box
Changing box ...
  triclinic box = (0 0 0) to (4.2939499 4.2530551 4.2530551) with tilt (0 0 0)
  triclinic box = (0 0 0) to (4.2939499 4.2939499 4.2530551) with tilt (0 0 0)
  triclinic box = (0 0 0) to (4.2939499 4.2939499 4.2939499) with tilt (0 0 0)
  triclinic box = (0 0 0) to (4.2939499 4.2939499 4.2939499) with tilt (0 0 0)
  triclinic box = (0 0 0) to (4.2939499 4.2939499 4.2939499) with tilt (0 0 0)
  triclinic box = (0 0 0) to (4.2939499 4.2939499 4.2939499) with tilt (0 0 0)
echo none
run 0
WARNING: No fixes with time integration, atoms won't move (src/src/verlet.cpp:60)
Per MPI rank memory allocation (min/avg/max) = 3.221 | 3.221 | 3.221 Mbytes
    PotEng          Pxx           E_mol          E_coul    
-10.997778     -102094.01      0              0            
Loop time of 1e-06 on 1 procs for 0 steps with 4 atoms

200.0% CPU use with 1 MPI tasks x no OpenMP threads

MPI task timing breakdown:
Section |  min time  |  avg time  |  max time  |%varavg| %total
---------------------------------------------------------------
Pair    | 0          | 0          | 0          |   0.0 |  0.00
Neigh   | 0          | 0          | 0          |   0.0 |  0.00
Comm    | 0          | 0          | 0          |   0.0 |  0.00
Output  | 0          | 0          | 0          |   0.0 |  0.00
Modify  | 0          | 0          | 0          |   0.0 |  0.00
Other   |            | 1e-06      |            |       |100.00

Nlocal:              4 ave           4 max           4 min
Histogram: 1 0 0 0 0 0 0 0 0 0
Nghost:            360 ave         360 max         360 min
Histogram: 1 0 0 0 0 0 0 0 0 0
Neighs:            268 ave         268 max         268 min
Histogram: 1 0 0 0 0 0 0 0 0 0

Total # of neighbors = 268
Ave neighs/atom = 67
Neighbor list builds = 0
Dangerous builds = 0
set atom * x 0.0 y 0.0 z 0.0
Setting atom values ...
  4 settings made for x
  4 settings made for y
  4 settings made for z
change_box all     x final 0 4.3348446563797545 y final 0 4.3348446563797545 z final 0 4.3348446563797545      xy final 0.0 xz final 0.0 yz final 0.0 units box
Changing box ...
  triclinic box = (0 0 0) to (4.3348447 4.2939499 4.2939499) with tilt (0 0 0)
  triclinic box = (0 0 0) to (4.3348447 4.3348447 4.2939499) with tilt (0 0 0)
  triclinic box = (0 0 0) to (4.3348447 4.3348447 4.3348447) with tilt (0 0 0)
  triclinic box = (0 0 0) to (4.3348447 4.3348447 4.3348447) with tilt (0 0 0)
  triclinic box = (0 0 0) to (4.3348447 4.3348447 4.3348447) with tilt (0 0 0)
  triclinic box = (0 0 0) to (4.3348447 4.3348447 4.3348447) with tilt (0 0 0)
echo none
run 0
WARNING: No fixes with time integration, atoms won't move (src/src/verlet.cpp:60)
Per MPI rank memory allocation (min/avg/max) = 3.221 | 3.221 | 3.221 Mbytes
    PotEng          Pxx           E_mol          E_coul    
-10.843978     -113354.51      0              0            
Loop time of 7.92e-07 on 1 procs for 0 steps with 4 atoms

0.0% CPU use with 1 MPI tasks x no OpenMP threads

MPI task timing breakdown:
Section |  min time  |  avg time  |  max time  |%varavg| %total
---------------------------------------------------------------
Pair    | 0          | 0          | 0          |   0.0 |  0.00
Neigh   | 0          | 0          | 0          |   0.0 |  0.00
Comm    | 0          | 0          | 0          |   0.0 |  0.00
Output  | 0          | 0          | 0          |   0.0 |  0.00
Modify  | 0          | 0          | 0          |   0.0 |  0.00
Other   |            | 7.92e-07   |            |       |100.00

Nlocal:              4 ave           4 max           4 min
Histogram: 1 0 0 0 0 0 0 0 0 0
Nghost:            360 ave         360 max         360 min
Histogram: 1 0 0 0 0 0 0 0 0 0
Neighs:            268 ave         268 max         268 min
Histogram: 1 0 0 0 0 0 0 0 0 0

Total # of neighbors = 268
Ave neighs/atom = 67
Neighbor list builds = 0
Dangerous builds = 0
set atom * x 0.0 y 0.0 z 0.0
Setting atom values ...
  4 settings made for x
  4 settings made for y
  4 settings made for z
change_box all     x final 0 4.375739417288999 y final 0 4.375739417288999 z final 0 4.375739417288999      xy final 0.0 xz final 0.0 yz final 0.0 units box
Changing box ...
  triclinic box = (0 0 0) to (4.3757394 4.3348447 4.3348447) with tilt (0 0 0)
  triclinic box = (0 0 0) to (4.3757394 4.3757394 4.3348447) with tilt (0 0 0)
  triclinic box = (0 0 0) to (4.3757394 4.3757394 4.3757394) with tilt (0 0 0)
  triclinic box = (0 0 0) to (4.3757394 4.3757394 4.3757394) with tilt (0 0 0)
  triclinic box = (0 0 0) to (4.3757394 4.3757394 4.3757394) with tilt (0 0 0)
  triclinic box = (0 0 0) to (4.3757394 4.3757394 4.3757394) with tilt (0 0 0)
echo none
run 0
WARNING: No fixes with time integration, atoms won't move (src/src/verlet.cpp:60)
Per MPI rank memory allocation (min/avg/max) = 3.221 | 3.221 | 3.221 Mbytes
    PotEng          Pxx           E_mol          E_coul    
-10.672222     -122839.48      0              0            
Loop time of 1e-06 on 1 procs for 0 steps with 4 atoms

0.0% CPU use with 1 MPI tasks x no OpenMP threads

MPI task timing breakdown:
Section |  min time  |  avg time  |  max time  |%varavg| %total
---------------------------------------------------------------
Pair    | 0          | 0          | 0          |   0.0 |  0.00
Neigh   | 0          | 0          | 0          |   0.0 |  0.00
Comm    | 0          | 0          | 0          |   0.0 |  0.00
Output  | 0          | 0          | 0          |   0.0 |  0.00
Modify  | 0          | 0          | 0          |   0.0 |  0.00
Other   |            | 1e-06      |            |       |100.00

Nlocal:              4 ave           4 max           4 min
Histogram: 1 0 0 0 0 0 0 0 0 0
Nghost:            360 ave         360 max         360 min
Histogram: 1 0 0 0 0 0 0 0 0 0
Neighs:            268 ave         268 max         268 min
Histogram: 1 0 0 0 0 0 0 0 0 0

Total # of neighbors = 268
Ave neighs/atom = 67
Neighbor list builds = 0
Dangerous builds = 0
set atom * x 0.0 y 0.0 z 0.0
Setting atom values ...
  4 settings made for x
  4 settings made for y
  4 settings made for z
change_box all     x final 0 4.416634178198241 y final 0 4.416634178198241 z final 0 4.416634178198241      xy final 0.0 xz final 0.0 yz final 0.0 units box
Changing box ...
  triclinic box = (0 0 0) to (4.4166342 4.3757394 4.3757394) with tilt (0 0 0)
  triclinic box = (0 0 0) to (4.4166342 4.4166342 4.3757394) with tilt (0 0 0)
  triclinic box = (0 0 0) to (4.4166342 4.4166342 4.4166342) with tilt (0 0 0)
  triclinic box = (0 0 0) to (4.4166342 4.4166342 4.4166342) with tilt (0 0 0)
  triclinic box = (0 0 0) to (4.4166342 4.4166342 4.4166342) with tilt (0 0 0)
  triclinic box = (0 0 0) to (4.4166342 4.4166342 4.4166342) with tilt (0 0 0)
echo none
run 0
WARNING: No fixes with time integration, atoms won't move (src/src/verlet.cpp:60)
Per MPI rank memory allocation (min/avg/max) = 3.221 | 3.221 | 3.221 Mbytes
    PotEng          Pxx           E_mol          E_coul    
-10.48436      -130774.84      0              0            
Loop time of 1.041e-06 on 1 procs for 0 steps with 4 atoms

192.1% CPU use with 1 MPI tasks x no OpenMP threads

MPI task timing breakdown:
Section |  min time  |  avg time  |  max time  |%varavg| %total
---------------------------------------------------------------
Pair    | 0          | 0          | 0          |   0.0 |  0.00
Neigh   | 0          | 0          | 0          |   0.0 |  0.00
Comm    | 0          | 0          | 0          |   0.0 |  0.00
Output  | 0          | 0          | 0          |   0.0 |  0.00
Modify  | 0          | 0          | 0          |   0.0 |  0.00
Other   |            | 1.041e-06  |            |       |100.00

Nlocal:              4 ave           4 max           4 min
Histogram: 1 0 0 0 0 0 0 0 0 0
Nghost:            360 ave         360 max         360 min
Histogram: 1 0 0 0 0 0 0 0 0 0
Neighs:            268 ave         268 max         268 min
Histogram: 1 0 0 0 0 0 0 0 0 0

Total # of neighbors = 268
Ave neighs/atom = 67
Neighbor list builds = 0
Dangerous builds = 0
set atom * x 0.0 y 0.0 z 0.0
Setting atom values ...
  4 settings made for x
  4 settings made for y
  4 settings made for z
change_box all     x final 0 4.457528939107485 y final 0 4.457528939107485 z final 0 4.457528939107485      xy final 0.0 xz final 0.0 yz final 0.0 units box
Changing box ...
  triclinic box = (0 0 0) to (4.4575289 4.4166342 4.4166342) with tilt (0 0 0)
  triclinic box = (0 0 0) to (4.4575289 4.4575289 4.4166342) with tilt (0 0 0)
  triclinic box = (0 0 0) to (4.4575289 4.4575289 4.4575289) with tilt (0 0 0)
  triclinic box = (0 0 0) to (4.4575289 4.4575289 4.4575289) with tilt (0 0 0)
  triclinic box = (0 0 0) to (4.4575289 4.4575289 4.4575289) with tilt (0 0 0)
  triclinic box = (0 0 0) to (4.4575289 4.4575289 4.4575289) with tilt (0 0 0)
echo none
run 0
WARNING: No fixes with time integration, atoms won't move (src/src/verlet.cpp:60)
Per MPI rank memory allocation (min/avg/max) = 3.221 | 3.221 | 3.221 Mbytes
    PotEng          Pxx           E_mol          E_coul    
-10.282109     -137290.98      0              0            
Loop time of 1.708e-06 on 1 procs for 0 steps with 4 atoms

234.2% CPU use with 1 MPI tasks x no OpenMP threads

MPI task timing breakdown:
Section |  min time  |  avg time  |  max time  |%varavg| %total
---------------------------------------------------------------
Pair    | 0          | 0          | 0          |   0.0 |  0.00
Neigh   | 0          | 0          | 0          |   0.0 |  0.00
Comm    | 0          | 0          | 0          |   0.0 |  0.00
Output  | 0          | 0          | 0          |   0.0 |  0.00
Modify  | 0          | 0          | 0          |   0.0 |  0.00
Other   |            | 1.708e-06  |            |       |100.00

Nlocal:              4 ave           4 max           4 min
Histogram: 1 0 0 0 0 0 0 0 0 0
Nghost:            360 ave         360 max         360 min
Histogram: 1 0 0 0 0 0 0 0 0 0
Neighs:            268 ave         268 max         268 min
Histogram: 1 0 0 0 0 0 0 0 0 0

Total # of neighbors = 268
Ave neighs/atom = 67
Neighbor list builds = 0
Dangerous builds = 0
set atom * x 0.0 y 0.0 z 0.0
Setting atom values ...
  4 settings made for x
  4 settings made for y
  4 settings made for z
change_box all     x final 0 4.498423700016727 y final 0 4.498423700016727 z final 0 4.498423700016727      xy final 0.0 xz final 0.0 yz final 0.0 units box
Changing box ...
  triclinic box = (0 0 0) to (4.4984237 4.4575289 4.4575289) with tilt (0 0 0)
  triclinic box = (0 0 0) to (4.4984237 4.4984237 4.4575289) with tilt (0 0 0)
  triclinic box = (0 0 0) to (4.4984237 4.4984237 4.4984237) with tilt (0 0 0)
  triclinic box = (0 0 0) to (4.4984237 4.4984237 4.4984237) with tilt (0 0 0)
  triclinic box = (0 0 0) to (4.4984237 4.4984237 4.4984237) with tilt (0 0 0)
  triclinic box = (0 0 0) to (4.4984237 4.4984237 4.4984237) with tilt (0 0 0)
echo none
run 0
WARNING: No fixes with time integration, atoms won't move (src/src/verlet.cpp:60)
Per MPI rank memory allocation (min/avg/max) = 3.221 | 3.221 | 3.221 Mbytes
    PotEng          Pxx           E_mol          E_coul    
-10.067139     -142482.01      0              0            
Loop time of 1e-06 on 1 procs for 0 steps with 4 atoms

100.0% CPU use with 1 MPI tasks x no OpenMP threads

MPI task timing breakdown:
Section |  min time  |  avg time  |  max time  |%varavg| %total
---------------------------------------------------------------
Pair    | 0          | 0          | 0          |   0.0 |  0.00
Neigh   | 0          | 0          | 0          |   0.0 |  0.00
Comm    | 0          | 0          | 0          |   0.0 |  0.00
Output  | 0          | 0          | 0          |   0.0 |  0.00
Modify  | 0          | 0          | 0          |   0.0 |  0.00
Other   |            | 1e-06      |            |       |100.00

Nlocal:              4 ave           4 max           4 min
Histogram: 1 0 0 0 0 0 0 0 0 0
Nghost:            360 ave         360 max         360 min
Histogram: 1 0 0 0 0 0 0 0 0 0
Neighs:            268 ave         268 max         268 min
Histogram: 1 0 0 0 0 0 0 0 0 0

Total # of neighbors = 268
Ave neighs/atom = 67
Neighbor list builds = 0
Dangerous builds = 0
set atom * x 0.0 y 0.0 z 0.0
Setting atom values ...
  4 settings made for x
  4 settings made for y
  4 settings made for z
change_box all     x final 0 12.26842827277289 y final 0 12.26842827277289 z final 0 12.26842827277289      xy final 0.0 xz final 0.0 yz final 0.0 units box
Changing box ...
  triclinic box = (0 0 0) to (12.268428 4.4984237 4.4984237) with tilt (0 0 0)
  triclinic box = (0 0 0) to (12.268428 12.268428 4.4984237) with tilt (0 0 0)
  triclinic box = (0 0 0) to (12.268428 12.268428 12.268428) with tilt (0 0 0)
  triclinic box = (0 0 0) to (12.268428 12.268428 12.268428) with tilt (0 0 0)
  triclinic box = (0 0 0) to (12.268428 12.268428 12.268428) with tilt (0 0 0)
  triclinic box = (0 0 0) to (12.268428 12.268428 12.268428) with tilt (0 0 0)
echo none
Created 104 atoms
  using lattice units in triclinic box = (0 0 0) to (12.268428 12.268428 12.268428) with tilt (0 0 0)
  create_atoms CPU = 0.000 seconds
Setting atom values ...
  1 settings made for type
Setting atom values ...
  1 settings made for type
Setting atom values ...
  1 settings made for type
Setting atom values ...
  1 settings made for type
Setting atom values ...
  1 settings made for type
Setting atom values ...
  1 settings made for type
Setting atom values ...
  1 settings made for type
Setting atom values ...
  1 settings made for type
Setting atom values ...
  1 settings made for type
Setting atom values ...
  1 settings made for type
Setting atom values ...
  1 settings made for type
Setting atom values ...
  1 settings made for type
Setting atom values ...
  1 settings made for type
Setting atom values ...
  1 settings made for type
Setting atom values ...
  1 settings made for type
Setting atom values ...
  1 settings made for type
Setting atom values ...
  1 settings made for type
Setting atom values ...
  1 settings made for type
Setting atom values ...
  1 settings made for type
Setting atom values ...
  1 settings made for type
Setting atom values ...
  1 settings made for type
Setting atom values ...
  1 settings made for type
Setting atom values ...
  1 settings made for type
Setting atom values ...
  1 settings made for type
Setting atom values ...
  1 settings made for type
Setting atom values ...
  1 settings made for type
Setting atom values ...
  1 settings made for type
Setting atom values ...
  1 settings made for type
Setting atom values ...
  1 settings made for type
Setting atom values ...
  1 settings made for type
Setting atom values ...
  1 settings made for type
Setting atom values ...
  1 settings made for type
Setting atom values ...
  1 settings made for type
Setting atom values ...
  1 settings made for type
Setting atom values ...
  1 settings made for type
Setting atom values ...
  1 settings made for type
Setting atom values ...
  1 settings made for type
Setting atom values ...
  1 settings made for type
Setting atom values ...
  1 settings made for type
Setting atom values ...
  1 settings made for type
Setting atom values ...
  1 settings made for type
Setting atom values ...
  1 settings made for type
Setting atom values ...
  1 settings made for type
Setting atom values ...
  1 settings made for type
Setting atom values ...
  1 settings made for type
Setting atom values ...
  1 settings made for type
Setting atom values ...
  1 settings made for type
Setting atom values ...
  1 settings made for type
Setting atom values ...
  1 settings made for type
Setting atom values ...
  1 settings made for type
Setting atom values ...
  1 settings made for type
Setting atom values ...
  1 settings made for type
Setting atom values ...
  1 settings made for type
Setting atom values ...
  1 settings made for type
Setting atom values ...
  1 settings made for type
Setting atom values ...
  1 settings made for type
Setting atom values ...
  1 settings made for type
Setting atom values ...
  1 settings made for type
Setting atom values ...
  1 settings made for type
Setting atom values ...
  1 settings made for type
Setting atom values ...
  1 settings made for type
Setting atom values ...
  1 settings made for type
Setting atom values ...
  1 settings made for type
Setting atom values ...
  1 settings made for type
Setting atom values ...
  1 settings made for type
Setting atom values ...
  1 settings made for type
Setting atom values ...
  1 settings made for type
Setting atom values ...
  1 settings made for type
Setting atom values ...
  1 settings made for type
Setting atom values ...
  1 settings made for type
Setting atom values ...
  1 settings made for type
Setting atom values ...
  1 settings made for type
Setting atom values ...
  1 settings made for type
Setting atom values ...
  1 settings made for type
Setting atom values ...
  1 settings made for type
Setting atom values ...
  1 settings made for type
Setting atom values ...
  1 settings made for type
Setting atom values ...
  1 settings made for type
Setting atom values ...
  1 settings made for type
Setting atom values ...
  1 settings made for type
Setting atom values ...
  1 settings made for type
Setting atom values ...
  1 settings made for type
Setting atom values ...
  1 settings made for type
Setting atom values ...
  1 settings made for type
Setting atom values ...
  1 settings made for type
Setting atom values ...
  1 settings made for type
Setting atom values ...
  1 settings made for type
Setting atom values ...
  1 settings made for type
Setting atom values ...
  1 settings made for type
Setting atom values ...
  1 settings made for type
Setting atom values ...
  1 settings made for type
Setting atom values ...
  1 settings made for type
Setting atom values ...
  1 settings made for type
Setting atom values ...
  1 settings made for type
Setting atom values ...
  1 settings made for type
Setting atom values ...
  1 settings made for type
Setting atom values ...
  1 settings made for type
Setting atom values ...
  1 settings made for type
Setting atom values ...
  1 settings made for type
Setting atom values ...
  1 settings made for type
Setting atom values ...
  1 settings made for type
Setting atom values ...
  1 settings made for type
Setting atom values ...
  1 settings made for type
Setting atom values ...
  1 settings made for type
run 0
WARNING: No fixes with time integration, atoms won't move (src/src/verlet.cpp:60)
Per MPI rank memory allocation (min/avg/max) = 3.274 | 3.274 | 3.274 Mbytes
    PotEng          Pxx           E_mol          E_coul    
-307.79995      127.08304      0              0            
Loop time of 1.041e-06 on 1 procs for 0 steps with 108 atoms

192.1% CPU use with 1 MPI tasks x no OpenMP threads

MPI task timing breakdown:
Section |  min time  |  avg time  |  max time  |%varavg| %total
---------------------------------------------------------------
Pair    | 0          | 0          | 0          |   0.0 |  0.00
Neigh   | 0          | 0          | 0          |   0.0 |  0.00
Comm    | 0          | 0          | 0          |   0.0 |  0.00
Output  | 0          | 0          | 0          |   0.0 |  0.00
Modify  | 0          | 0          | 0          |   0.0 |  0.00
Other   |            | 1.041e-06  |            |       |100.00

Nlocal:            108 ave         108 max         108 min
Histogram: 1 0 0 0 0 0 0 0 0 0
Nghost:           1580 ave        1580 max        1580 min
Histogram: 1 0 0 0 0 0 0 0 0 0
Neighs:           7560 ave        7560 max        7560 min
Histogram: 1 0 0 0 0 0 0 0 0 0

Total # of neighbors = 7560
Ave neighs/atom = 70
Neighbor list builds = 0
Dangerous builds = 0
set atom * x 0.0 y 0.0 z 0.0
Setting atom values ...
  108 settings made for x
  108 settings made for y
  108 settings made for z
change_box all     x final 0 12.023059707317433 y final 0 12.26842827277289 z final 0 12.26842827277289      xy final 0.0 xz final 0.0 yz final 0.0 units box
Changing box ...
  triclinic box = (0 0 0) to (12.02306 12.268428 12.268428) with tilt (0 0 0)
  triclinic box = (0 0 0) to (12.02306 12.268428 12.268428) with tilt (0 0 0)
  triclinic box = (0 0 0) to (12.02306 12.268428 12.268428) with tilt (0 0 0)
  triclinic box = (0 0 0) to (12.02306 12.268428 12.268428) with tilt (0 0 0)
  triclinic box = (0 0 0) to (12.02306 12.268428 12.268428) with tilt (0 0 0)
  triclinic box = (0 0 0) to (12.02306 12.268428 12.268428) with tilt (0 0 0)
echo none
run 0
WARNING: No fixes with time integration, atoms won't move (src/src/verlet.cpp:60)
Per MPI rank memory allocation (min/avg/max) = 3.274 | 3.274 | 3.274 Mbytes
    PotEng          Pxx           E_mol          E_coul    
-307.49039      27574.642      0              0            
Loop time of 8.75e-07 on 1 procs for 0 steps with 108 atoms

342.9% CPU use with 1 MPI tasks x no OpenMP threads

MPI task timing breakdown:
Section |  min time  |  avg time  |  max time  |%varavg| %total
---------------------------------------------------------------
Pair    | 0          | 0          | 0          |   0.0 |  0.00
Neigh   | 0          | 0          | 0          |   0.0 |  0.00
Comm    | 0          | 0          | 0          |   0.0 |  0.00
Output  | 0          | 0          | 0          |   0.0 |  0.00
Modify  | 0          | 0          | 0          |   0.0 |  0.00
Other   |            | 8.75e-07   |            |       |100.00

Nlocal:            108 ave         108 max         108 min
Histogram: 1 0 0 0 0 0 0 0 0 0
Nghost:           1580 ave        1580 max        1580 min
Histogram: 1 0 0 0 0 0 0 0 0 0
Neighs:           7560 ave        7560 max        7560 min
Histogram: 1 0 0 0 0 0 0 0 0 0

Total # of neighbors = 7560
Ave neighs/atom = 70
Neighbor list builds = 0
Dangerous builds = 0
set atom * x 0.0 y 0.0 z 0.0
Setting atom values ...
  108 settings made for x
  108 settings made for y
  108 settings made for z
change_box all     x final 0 12.145743990045162 y final 0 12.26842827277289 z final 0 12.26842827277289      xy final 0.0 xz final 0.0 yz final 0.0 units box
Changing box ...
  triclinic box = (0 0 0) to (12.145744 12.268428 12.268428) with tilt (0 0 0)
  triclinic box = (0 0 0) to (12.145744 12.268428 12.268428) with tilt (0 0 0)
  triclinic box = (0 0 0) to (12.145744 12.268428 12.268428) with tilt (0 0 0)
  triclinic box = (0 0 0) to (12.145744 12.268428 12.268428) with tilt (0 0 0)
  triclinic box = (0 0 0) to (12.145744 12.268428 12.268428) with tilt (0 0 0)
  triclinic box = (0 0 0) to (12.145744 12.268428 12.268428) with tilt (0 0 0)
echo none
run 0
WARNING: No fixes with time integration, atoms won't move (src/src/verlet.cpp:60)
Per MPI rank memory allocation (min/avg/max) = 3.274 | 3.274 | 3.274 Mbytes
    PotEng          Pxx           E_mol          E_coul    
-307.72427      13218.189      0              0            
Loop time of 1e-06 on 1 procs for 0 steps with 108 atoms

0.0% CPU use with 1 MPI tasks x no OpenMP threads

MPI task timing breakdown:
Section |  min time  |  avg time  |  max time  |%varavg| %total
---------------------------------------------------------------
Pair    | 0          | 0          | 0          |   0.0 |  0.00
Neigh   | 0          | 0          | 0          |   0.0 |  0.00
Comm    | 0          | 0          | 0          |   0.0 |  0.00
Output  | 0          | 0          | 0          |   0.0 |  0.00
Modify  | 0          | 0          | 0          |   0.0 |  0.00
Other   |            | 1e-06      |            |       |100.00

Nlocal:            108 ave         108 max         108 min
Histogram: 1 0 0 0 0 0 0 0 0 0
Nghost:           1580 ave        1580 max        1580 min
Histogram: 1 0 0 0 0 0 0 0 0 0
Neighs:           7560 ave        7560 max        7560 min
Histogram: 1 0 0 0 0 0 0 0 0 0

Total # of neighbors = 7560
Ave neighs/atom = 70
Neighbor list builds = 0
Dangerous builds = 0
set atom * x 0.0 y 0.0 z 0.0
Setting atom values ...
  108 settings made for x
  108 settings made for y
  108 settings made for z
change_box all     x final 0 12.26842827277289 y final 0 12.26842827277289 z final 0 12.26842827277289      xy final 0.0 xz final 0.0 yz final 0.0 units box
Changing box ...
  triclinic box = (0 0 0) to (12.268428 12.268428 12.268428) with tilt (0 0 0)
  triclinic box = (0 0 0) to (12.268428 12.268428 12.268428) with tilt (0 0 0)
  triclinic box = (0 0 0) to (12.268428 12.268428 12.268428) with tilt (0 0 0)
  triclinic box = (0 0 0) to (12.268428 12.268428 12.268428) with tilt (0 0 0)
  triclinic box = (0 0 0) to (12.268428 12.268428 12.268428) with tilt (0 0 0)
  triclinic box = (0 0 0) to (12.268428 12.268428 12.268428) with tilt (0 0 0)
echo none
run 0
WARNING: No fixes with time integration, atoms won't move (src/src/verlet.cpp:60)
Per MPI rank memory allocation (min/avg/max) = 3.274 | 3.274 | 3.274 Mbytes
    PotEng          Pxx           E_mol          E_coul    
-307.79995      127.08304      0              0            
Loop time of 7.5e-07 on 1 procs for 0 steps with 108 atoms

0.0% CPU use with 1 MPI tasks x no OpenMP threads

MPI task timing breakdown:
Section |  min time  |  avg time  |  max time  |%varavg| %total
---------------------------------------------------------------
Pair    | 0          | 0          | 0          |   0.0 |  0.00
Neigh   | 0          | 0          | 0          |   0.0 |  0.00
Comm    | 0          | 0          | 0          |   0.0 |  0.00
Output  | 0          | 0          | 0          |   0.0 |  0.00
Modify  | 0          | 0          | 0          |   0.0 |  0.00
Other   |            | 7.5e-07    |            |       |100.00

Nlocal:            108 ave         108 max         108 min
Histogram: 1 0 0 0 0 0 0 0 0 0
Nghost:           1580 ave        1580 max        1580 min
Histogram: 1 0 0 0 0 0 0 0 0 0
Neighs:           7560 ave        7560 max        7560 min
Histogram: 1 0 0 0 0 0 0 0 0 0

Total # of neighbors = 7560
Ave neighs/atom = 70
Neighbor list builds = 0
Dangerous builds = 0
set atom * x 0.0 y 0.0 z 0.0
Setting atom values ...
  108 settings made for x
  108 settings made for y
  108 settings made for z
change_box all     x final 0 12.39111255550062 y final 0 12.26842827277289 z final 0 12.26842827277289      xy final 0.0 xz final 0.0 yz final 0.0 units box
Changing box ...
  triclinic box = (0 0 0) to (12.391113 12.268428 12.268428) with tilt (0 0 0)
  triclinic box = (0 0 0) to (12.391113 12.268428 12.268428) with tilt (0 0 0)
  triclinic box = (0 0 0) to (12.391113 12.268428 12.268428) with tilt (0 0 0)
  triclinic box = (0 0 0) to (12.391113 12.268428 12.268428) with tilt (0 0 0)
  triclinic box = (0 0 0) to (12.391113 12.268428 12.268428) with tilt (0 0 0)
  triclinic box = (0 0 0) to (12.391113 12.268428 12.268428) with tilt (0 0 0)
echo none
run 0
WARNING: No fixes with time integration, atoms won't move (src/src/verlet.cpp:60)
Per MPI rank memory allocation (min/avg/max) = 3.274 | 3.274 | 3.274 Mbytes
    PotEng          Pxx           E_mol          E_coul    
-307.73177     -11702.911      0              0            
Loop time of 9.17e-07 on 1 procs for 0 steps with 108 atoms

218.1% CPU use with 1 MPI tasks x no OpenMP threads

MPI task timing breakdown:
Section |  min time  |  avg time  |  max time  |%varavg| %total
---------------------------------------------------------------
Pair    | 0          | 0          | 0          |   0.0 |  0.00
Neigh   | 0          | 0          | 0          |   0.0 |  0.00
Comm    | 0          | 0          | 0          |   0.0 |  0.00
Output  | 0          | 0          | 0          |   0.0 |  0.00
Modify  | 0          | 0          | 0          |   0.0 |  0.00
Other   |            | 9.17e-07   |            |       |100.00

Nlocal:            108 ave         108 max         108 min
Histogram: 1 0 0 0 0 0 0 0 0 0
Nghost:           1580 ave        1580 max        1580 min
Histogram: 1 0 0 0 0 0 0 0 0 0
Neighs:           7560 ave        7560 max        7560 min
Histogram: 1 0 0 0 0 0 0 0 0 0

Total # of neighbors = 7560
Ave neighs/atom = 70
Neighbor list builds = 0
Dangerous builds = 0
set atom * x 0.0 y 0.0 z 0.0
Setting atom values ...
  108 settings made for x
  108 settings made for y
  108 settings made for z
change_box all     x final 0 12.513796838228348 y final 0 12.26842827277289 z final 0 12.26842827277289      xy final 0.0 xz final 0.0 yz final 0.0 units box
Changing box ...
  triclinic box = (0 0 0) to (12.513797 12.268428 12.268428) with tilt (0 0 0)
  triclinic box = (0 0 0) to (12.513797 12.268428 12.268428) with tilt (0 0 0)
  triclinic box = (0 0 0) to (12.513797 12.268428 12.268428) with tilt (0 0 0)
  triclinic box = (0 0 0) to (12.513797 12.268428 12.268428) with tilt (0 0 0)
  triclinic box = (0 0 0) to (12.513797 12.268428 12.268428) with tilt (0 0 0)
  triclinic box = (0 0 0) to (12.513797 12.268428 12.268428) with tilt (0 0 0)
echo none
run 0
WARNING: No fixes with time integration, atoms won't move (src/src/verlet.cpp:60)
Per MPI rank memory allocation (min/avg/max) = 3.274 | 3.274 | 3.274 Mbytes
    PotEng          Pxx           E_mol          E_coul    
-307.53435     -22373.085      0              0            
Loop time of 7.92e-07 on 1 procs for 0 steps with 108 atoms

252.5% CPU use with 1 MPI tasks x no OpenMP threads

MPI task timing breakdown:
Section |  min time  |  avg time  |  max time  |%varavg| %total
---------------------------------------------------------------
Pair    | 0          | 0          | 0          |   0.0 |  0.00
Neigh   | 0          | 0          | 0          |   0.0 |  0.00
Comm    | 0          | 0          | 0          |   0.0 |  0.00
Output  | 0          | 0          | 0          |   0.0 |  0.00
Modify  | 0          | 0          | 0          |   0.0 |  0.00
Other   |            | 7.92e-07   |            |       |100.00

Nlocal:            108 ave         108 max         108 min
Histogram: 1 0 0 0 0 0 0 0 0 0
Nghost:           1580 ave        1580 max        1580 min
Histogram: 1 0 0 0 0 0 0 0 0 0
Neighs:           7560 ave        7560 max        7560 min
Histogram: 1 0 0 0 0 0 0 0 0 0

Total # of neighbors = 7560
Ave neighs/atom = 70
Neighbor list builds = 0
Dangerous builds = 0
set atom * x 0.0 y 0.0 z 0.0
Setting atom values ...
  108 settings made for x
  108 settings made for y
  108 settings made for z
change_box all     x final 0 12.26842827277289 y final 0 12.268452809604899 z final 0 12.268403735989956      xy final 0.0 xz final 0.0 yz final 0.02453680747197991 units box
Changing box ...
  triclinic box = (0 0 0) to (12.268428 12.268428 12.268428) with tilt (0 0 0)
  triclinic box = (0 0 0) to (12.268428 12.268453 12.268428) with tilt (0 0 0)
  triclinic box = (0 0 0) to (12.268428 12.268453 12.268404) with tilt (0 0 0)
  triclinic box = (0 0 0) to (12.268428 12.268453 12.268404) with tilt (0 0 0)
  triclinic box = (0 0 0) to (12.268428 12.268453 12.268404) with tilt (0 0 0)
  triclinic box = (0 0 0) to (12.268428 12.268453 12.268404) with tilt (0 0 0.024536807)
echo none
run 0
WARNING: No fixes with time integration, atoms won't move (src/src/verlet.cpp:60)
Per MPI rank memory allocation (min/avg/max) = 3.274 | 3.274 | 3.274 Mbytes
    PotEng          Pxx           E_mol          E_coul    
-307.79881      128.28672      0              0            
Loop time of 8.75e-07 on 1 procs for 0 steps with 108 atoms

342.9% CPU use with 1 MPI tasks x no OpenMP threads

MPI task timing breakdown:
Section |  min time  |  avg time  |  max time  |%varavg| %total
---------------------------------------------------------------
Pair    | 0          | 0          | 0          |   0.0 |  0.00
Neigh   | 0          | 0          | 0          |   0.0 |  0.00
Comm    | 0          | 0          | 0          |   0.0 |  0.00
Output  | 0          | 0          | 0          |   0.0 |  0.00
Modify  | 0          | 0          | 0          |   0.0 |  0.00
Other   |            | 8.75e-07   |            |       |100.00

Nlocal:            108 ave         108 max         108 min
Histogram: 1 0 0 0 0 0 0 0 0 0
Nghost:           1580 ave        1580 max        1580 min
Histogram: 1 0 0 0 0 0 0 0 0 0
Neighs:           7560 ave        7560 max        7560 min
Histogram: 1 0 0 0 0 0 0 0 0 0

Total # of neighbors = 7560
Ave neighs/atom = 70
Neighbor list builds = 0
Dangerous builds = 0
set atom * x 0.0 y 0.0 z 0.0
Setting atom values ...
  108 settings made for x
  108 settings made for y
  108 settings made for z
change_box all     x final 0 12.26842827277289 y final 0 12.268687440582722 z final 0 12.268169110437803      xy final 0.0 xz final 0.0 yz final 0.07974309921784574 units box
Changing box ...
  triclinic box = (0 0 0) to (12.268428 12.268453 12.268404) with tilt (0 0 0.024536807)
  triclinic box = (0 0 0) to (12.268428 12.268687 12.268404) with tilt (0 0 0.024536807)
  triclinic box = (0 0 0) to (12.268428 12.268687 12.268169) with tilt (0 0 0.024536807)
  triclinic box = (0 0 0) to (12.268428 12.268687 12.268169) with tilt (0 0 0.024536807)
  triclinic box = (0 0 0) to (12.268428 12.268687 12.268169) with tilt (0 0 0.024536807)
  triclinic box = (0 0 0) to (12.268428 12.268687 12.268169) with tilt (0 0 0.079743099)
echo none
run 0
WARNING: No fixes with time integration, atoms won't move (src/src/verlet.cpp:60)
[...]
echo none
run 0
Per MPI rank memory allocation (min/avg/max) = 3.392 | 3.392 | 3.392 Mbytes
    PotEng          Pxx           E_mol          E_coul    
-434.78454     -1093.7547      0              0            
Loop time of 1.125e-06 on 1 procs for 0 steps with 160 atoms

88.9% CPU use with 1 MPI tasks x no OpenMP threads

MPI task timing breakdown:
Section |  min time  |  avg time  |  max time  |%varavg| %total
---------------------------------------------------------------
Pair    | 0          | 0          | 0          |   0.0 |  0.00
Neigh   | 0          | 0          | 0          |   0.0 |  0.00
Comm    | 0          | 0          | 0          |   0.0 |  0.00
Output  | 0          | 0          | 0          |   0.0 |  0.00
Modify  | 0          | 0          | 0          |   0.0 |  0.00
Other   |            | 1.125e-06  |            |       |100.00

Nlocal:            160 ave         160 max         160 min
Histogram: 1 0 0 0 0 0 0 0 0 0
Nghost:            836 ave         836 max         836 min
Histogram: 1 0 0 0 0 0 0 0 0 0
Neighs:           9104 ave        9104 max        9104 min
Histogram: 1 0 0 0 0 0 0 0 0 0

Total # of neighbors = 9104
Ave neighs/atom = 56.9
Neighbor list builds = 0
Dangerous builds = 0
set atom * x 0.0 y 0.0 z 0.0
Setting atom values ...
  160 settings made for x
  160 settings made for y
  160 settings made for z
change_box all     x final 0 11.461016877927227 y final 0 14.036821642173695 z final 0 35.53254263772338      xy final -11.461016877927227 xz final 0.0 yz final 0.0 units box
Changing box ...
  triclinic box = (0 0 0) to (11.461017 14.037855 35.535158) with tilt (-11.461861 0 0)
  triclinic box = (0 0 0) to (11.461017 14.036822 35.535158) with tilt (-11.461861 0 0)
  triclinic box = (0 0 0) to (11.461017 14.036822 35.532543) with tilt (-11.461861 0 0)
  triclinic box = (0 0 0) to (11.461017 14.036822 35.532543) with tilt (-11.461017 0 0)
  triclinic box = (0 0 0) to (11.461017 14.036822 35.532543) with tilt (-11.461017 0 0)
  triclinic box = (0 0 0) to (11.461017 14.036822 35.532543) with tilt (-11.461017 0 0)
echo none
run 0
Per MPI rank memory allocation (min/avg/max) = 3.392 | 3.392 | 3.392 Mbytes
    PotEng          Pxx           E_mol          E_coul    
-434.78512     -1138.3899      0              0            
Loop time of 1.083e-06 on 1 procs for 0 steps with 160 atoms

184.7% CPU use with 1 MPI tasks x no OpenMP threads

MPI task timing breakdown:
Section |  min time  |  avg time  |  max time  |%varavg| %total
---------------------------------------------------------------
Pair    | 0          | 0          | 0          |   0.0 |  0.00
Neigh   | 0          | 0          | 0          |   0.0 |  0.00
Comm    | 0          | 0          | 0          |   0.0 |  0.00
Output  | 0          | 0          | 0          |   0.0 |  0.00
Modify  | 0          | 0          | 0          |   0.0 |  0.00
Other   |            | 1.083e-06  |            |       |100.00

Nlocal:            160 ave         160 max         160 min
Histogram: 1 0 0 0 0 0 0 0 0 0
Nghost:            840 ave         840 max         840 min
Histogram: 1 0 0 0 0 0 0 0 0 0
Neighs:           9104 ave        9104 max        9104 min
Histogram: 1 0 0 0 0 0 0 0 0 0

Total # of neighbors = 9104
Ave neighs/atom = 56.9
Neighbor list builds = 0
Dangerous builds = 0
set atom * x 0.0 y 0.0 z 0.0
Setting atom values ...
  160 settings made for x
  160 settings made for y
  160 settings made for z
change_box all     x final 0 11.461016877927227 y final 0 14.036821642173694 z final 0 35.53254263772338      xy final -11.461016877927227 xz final 0.0 yz final 0.0 units box
Changing box ...
  triclinic box = (0 0 0) to (11.461017 14.036822 35.532543) with tilt (-11.461017 0 0)
  triclinic box = (0 0 0) to (11.461017 14.036822 35.532543) with tilt (-11.461017 0 0)
  triclinic box = (0 0 0) to (11.461017 14.036822 35.532543) with tilt (-11.461017 0 0)
  triclinic box = (0 0 0) to (11.461017 14.036822 35.532543) with tilt (-11.461017 0 0)
  triclinic box = (0 0 0) to (11.461017 14.036822 35.532543) with tilt (-11.461017 0 0)
  triclinic box = (0 0 0) to (11.461017 14.036822 35.532543) with tilt (-11.461017 0 0)
echo none
run 0
Per MPI rank memory allocation (min/avg/max) = 3.392 | 3.392 | 3.392 Mbytes
    PotEng          Pxx           E_mol          E_coul    
-434.78512     -1138.3899      0              0            
Loop time of 1.208e-06 on 1 procs for 0 steps with 160 atoms

165.6% CPU use with 1 MPI tasks x no OpenMP threads

MPI task timing breakdown:
Section |  min time  |  avg time  |  max time  |%varavg| %total
---------------------------------------------------------------
Pair    | 0          | 0          | 0          |   0.0 |  0.00
Neigh   | 0          | 0          | 0          |   0.0 |  0.00
Comm    | 0          | 0          | 0          |   0.0 |  0.00
Output  | 0          | 0          | 0          |   0.0 |  0.00
Modify  | 0          | 0          | 0          |   0.0 |  0.00
Other   |            | 1.208e-06  |            |       |100.00

Nlocal:            160 ave         160 max         160 min
Histogram: 1 0 0 0 0 0 0 0 0 0
Nghost:            840 ave         840 max         840 min
Histogram: 1 0 0 0 0 0 0 0 0 0
Neighs:           9104 ave        9104 max        9104 min
Histogram: 1 0 0 0 0 0 0 0 0 0

Total # of neighbors = 9104
Ave neighs/atom = 56.9
Neighbor list builds = 0
Dangerous builds = 0
set atom * x 0.0 y 0.0 z 0.0
Setting atom values ...
  160 settings made for x
  160 settings made for y
  160 settings made for z
change_box all     x final 0 11.461171351653961 y final 0 14.037010833078273 z final 0 35.53302155197157      xy final -11.461171351653961 xz final 0.0 yz final 0.0 units box
Changing box ...
  triclinic box = (0 0 0) to (11.461171 14.036822 35.532543) with tilt (-11.461017 0 0)
  triclinic box = (0 0 0) to (11.461171 14.037011 35.532543) with tilt (-11.461017 0 0)
  triclinic box = (0 0 0) to (11.461171 14.037011 35.533022) with tilt (-11.461017 0 0)
  triclinic box = (0 0 0) to (11.461171 14.037011 35.533022) with tilt (-11.461171 0 0)
  triclinic box = (0 0 0) to (11.461171 14.037011 35.533022) with tilt (-11.461171 0 0)
  triclinic box = (0 0 0) to (11.461171 14.037011 35.533022) with tilt (-11.461171 0 0)
echo none
run 0
Per MPI rank memory allocation (min/avg/max) = 3.392 | 3.392 | 3.392 Mbytes
    PotEng          Pxx           E_mol          E_coul    
-434.78546     -1144.6742      0              0            
Loop time of 1.041e-06 on 1 procs for 0 steps with 160 atoms

192.1% CPU use with 1 MPI tasks x no OpenMP threads

MPI task timing breakdown:
Section |  min time  |  avg time  |  max time  |%varavg| %total
---------------------------------------------------------------
Pair    | 0          | 0          | 0          |   0.0 |  0.00
Neigh   | 0          | 0          | 0          |   0.0 |  0.00
Comm    | 0          | 0          | 0          |   0.0 |  0.00
Output  | 0          | 0          | 0          |   0.0 |  0.00
Modify  | 0          | 0          | 0          |   0.0 |  0.00
Other   |            | 1.041e-06  |            |       |100.00

Nlocal:            160 ave         160 max         160 min
Histogram: 1 0 0 0 0 0 0 0 0 0
Nghost:            840 ave         840 max         840 min
Histogram: 1 0 0 0 0 0 0 0 0 0
Neighs:           9104 ave        9104 max        9104 min
Histogram: 1 0 0 0 0 0 0 0 0 0

Total # of neighbors = 9104
Ave neighs/atom = 56.9
Neighbor list builds = 0
Dangerous builds = 0
set atom * x 0.0 y 0.0 z 0.0
Setting atom values ...
  160 settings made for x
  160 settings made for y
  160 settings made for z
change_box all     x final 0 11.461310964390766 y final 0 14.037181823061653 z final 0 35.533454392754905      xy final -11.461310964390766 xz final 0.0 yz final 0.0 units box
Changing box ...
  triclinic box = (0 0 0) to (11.461311 14.037011 35.533022) with tilt (-11.461171 0 0)
  triclinic box = (0 0 0) to (11.461311 14.037182 35.533022) with tilt (-11.461171 0 0)
  triclinic box = (0 0 0) to (11.461311 14.037182 35.533454) with tilt (-11.461171 0 0)
  triclinic box = (0 0 0) to (11.461311 14.037182 35.533454) with tilt (-11.461311 0 0)
  triclinic box = (0 0 0) to (11.461311 14.037182 35.533454) with tilt (-11.461311 0 0)
  triclinic box = (0 0 0) to (11.461311 14.037182 35.533454) with tilt (-11.461311 0 0)
echo none
run 0
Per MPI rank memory allocation (min/avg/max) = 3.392 | 3.392 | 3.392 Mbytes
    PotEng          Pxx           E_mol          E_coul    
-434.78556     -1150.184       0              0            
Loop time of 1.167e-06 on 1 procs for 0 steps with 160 atoms

171.4% CPU use with 1 MPI tasks x no OpenMP threads

MPI task timing breakdown:
Section |  min time  |  avg time  |  max time  |%varavg| %total
---------------------------------------------------------------
Pair    | 0          | 0          | 0          |   0.0 |  0.00
Neigh   | 0          | 0          | 0          |   0.0 |  0.00
Comm    | 0          | 0          | 0          |   0.0 |  0.00
Output  | 0          | 0          | 0          |   0.0 |  0.00
Modify  | 0          | 0          | 0          |   0.0 |  0.00
Other   |            | 1.167e-06  |            |       |100.00

Nlocal:            160 ave         160 max         160 min
Histogram: 1 0 0 0 0 0 0 0 0 0
Nghost:            840 ave         840 max         840 min
Histogram: 1 0 0 0 0 0 0 0 0 0
Neighs:           9104 ave        9104 max        9104 min
Histogram: 1 0 0 0 0 0 0 0 0 0

Total # of neighbors = 9104
Ave neighs/atom = 56.9
Neighbor list builds = 0
Dangerous builds = 0
set atom * x 0.0 y 0.0 z 0.0
Setting atom values ...
  160 settings made for x
  160 settings made for y
  160 settings made for z
change_box all     x final 0 11.461310964390766 y final 0 14.037181823061653 z final 0 35.533454392754905      xy final -11.461310964390766 xz final 0.0 yz final 0.0 units box
Changing box ...
  triclinic box = (0 0 0) to (11.461311 14.037182 35.533454) with tilt (-11.461311 0 0)
  triclinic box = (0 0 0) to (11.461311 14.037182 35.533454) with tilt (-11.461311 0 0)
  triclinic box = (0 0 0) to (11.461311 14.037182 35.533454) with tilt (-11.461311 0 0)
  triclinic box = (0 0 0) to (11.461311 14.037182 35.533454) with tilt (-11.461311 0 0)
  triclinic box = (0 0 0) to (11.461311 14.037182 35.533454) with tilt (-11.461311 0 0)
  triclinic box = (0 0 0) to (11.461311 14.037182 35.533454) with tilt (-11.461311 0 0)
echo none
run 0
Per MPI rank memory allocation (min/avg/max) = 3.392 | 3.392 | 3.392 Mbytes
    PotEng          Pxx           E_mol          E_coul    
-434.78556     -1150.184       0              0            
Loop time of 1.084e-06 on 1 procs for 0 steps with 160 atoms

184.5% CPU use with 1 MPI tasks x no OpenMP threads

MPI task timing breakdown:
Section |  min time  |  avg time  |  max time  |%varavg| %total
---------------------------------------------------------------
Pair    | 0          | 0          | 0          |   0.0 |  0.00
Neigh   | 0          | 0          | 0          |   0.0 |  0.00
Comm    | 0          | 0          | 0          |   0.0 |  0.00
Output  | 0          | 0          | 0          |   0.0 |  0.00
Modify  | 0          | 0          | 0          |   0.0 |  0.00
Other   |            | 1.084e-06  |            |       |100.00

Nlocal:            160 ave         160 max         160 min
Histogram: 1 0 0 0 0 0 0 0 0 0
Nghost:            840 ave         840 max         840 min
Histogram: 1 0 0 0 0 0 0 0 0 0
Neighs:           9104 ave        9104 max        9104 min
Histogram: 1 0 0 0 0 0 0 0 0 0

Total # of neighbors = 9104
Ave neighs/atom = 56.9
Neighbor list builds = 0
Dangerous builds = 0
set atom * x 0.0 y 0.0 z 0.0
Setting atom values ...
  160 settings made for x
  160 settings made for y
  160 settings made for z
change_box all     x final 0 11.461445631638028 y final 0 14.037346756082082 z final 0 35.53387190105772      xy final -11.461445631638028 xz final 0.0 yz final 0.0 units box
Changing box ...
  triclinic box = (0 0 0) to (11.461446 14.037182 35.533454) with tilt (-11.461311 0 0)
  triclinic box = (0 0 0) to (11.461446 14.037347 35.533454) with tilt (-11.461311 0 0)
  triclinic box = (0 0 0) to (11.461446 14.037347 35.533872) with tilt (-11.461311 0 0)
  triclinic box = (0 0 0) to (11.461446 14.037347 35.533872) with tilt (-11.461446 0 0)
  triclinic box = (0 0 0) to (11.461446 14.037347 35.533872) with tilt (-11.461446 0 0)
  triclinic box = (0 0 0) to (11.461446 14.037347 35.533872) with tilt (-11.461446 0 0)
echo none
run 0
Per MPI rank memory allocation (min/avg/max) = 3.392 | 3.392 | 3.392 Mbytes
    PotEng          Pxx           E_mol          E_coul    
-434.78562     -1144.3257      0              0            
Loop time of 9.17e-07 on 1 procs for 0 steps with 160 atoms

109.1% CPU use with 1 MPI tasks x no OpenMP threads

MPI task timing breakdown:
Section |  min time  |  avg time  |  max time  |%varavg| %total
---------------------------------------------------------------
Pair    | 0          | 0          | 0          |   0.0 |  0.00
Neigh   | 0          | 0          | 0          |   0.0 |  0.00
Comm    | 0          | 0          | 0          |   0.0 |  0.00
Output  | 0          | 0          | 0          |   0.0 |  0.00
Modify  | 0          | 0          | 0          |   0.0 |  0.00
Other   |            | 9.17e-07   |            |       |100.00

Nlocal:            160 ave         160 max         160 min
Histogram: 1 0 0 0 0 0 0 0 0 0
Nghost:            840 ave         840 max         840 min
Histogram: 1 0 0 0 0 0 0 0 0 0
Neighs:           9104 ave        9104 max        9104 min
Histogram: 1 0 0 0 0 0 0 0 0 0

Total # of neighbors = 9104
Ave neighs/atom = 56.9
Neighbor list builds = 0
Dangerous builds = 0
set atom * x 0.0 y 0.0 z 0.0
Setting atom values ...
  160 settings made for x
  160 settings made for y
  160 settings made for z
change_box all     x final 0 11.461573774247542 y final 0 14.037503698085892 z final 0 35.534269181053446      xy final -11.461573774247542 xz final 0.0 yz final 0.0 units box
Changing box ...
  triclinic box = (0 0 0) to (11.461574 14.037347 35.533872) with tilt (-11.461446 0 0)
  triclinic box = (0 0 0) to (11.461574 14.037504 35.533872) with tilt (-11.461446 0 0)
  triclinic box = (0 0 0) to (11.461574 14.037504 35.534269) with tilt (-11.461446 0 0)
  triclinic box = (0 0 0) to (11.461574 14.037504 35.534269) with tilt (-11.461574 0 0)
  triclinic box = (0 0 0) to (11.461574 14.037504 35.534269) with tilt (-11.461574 0 0)
  triclinic box = (0 0 0) to (11.461574 14.037504 35.534269) with tilt (-11.461574 0 0)
echo none
run 0
Per MPI rank memory allocation (min/avg/max) = 3.392 | 3.392 | 3.392 Mbytes
    PotEng          Pxx           E_mol          E_coul    
-434.78564     -1138.7086      0              0            
Loop time of 6.66e-07 on 1 procs for 0 steps with 160 atoms

0.0% CPU use with 1 MPI tasks x no OpenMP threads

MPI task timing breakdown:
Section |  min time  |  avg time  |  max time  |%varavg| %total
---------------------------------------------------------------
Pair    | 0          | 0          | 0          |   0.0 |  0.00
Neigh   | 0          | 0          | 0          |   0.0 |  0.00
Comm    | 0          | 0          | 0          |   0.0 |  0.00
Output  | 0          | 0          | 0          |   0.0 |  0.00
Modify  | 0          | 0          | 0          |   0.0 |  0.00
Other   |            | 6.66e-07   |            |       |100.00

Nlocal:            160 ave         160 max         160 min
Histogram: 1 0 0 0 0 0 0 0 0 0
Nghost:            840 ave         840 max         840 min
Histogram: 1 0 0 0 0 0 0 0 0 0
Neighs:           9104 ave        9104 max        9104 min
Histogram: 1 0 0 0 0 0 0 0 0 0

Total # of neighbors = 9104
Ave neighs/atom = 56.9
Neighbor list builds = 0
Dangerous builds = 0
set atom * x 0.0 y 0.0 z 0.0
Setting atom values ...
  160 settings made for x
  160 settings made for y
  160 settings made for z
change_box all     x final 0 11.461573774247544 y final 0 14.037503698085892 z final 0 35.534269181053446      xy final -11.461573774247544 xz final 0.0 yz final 0.0 units box
Changing box ...
  triclinic box = (0 0 0) to (11.461574 14.037504 35.534269) with tilt (-11.461574 0 0)
  triclinic box = (0 0 0) to (11.461574 14.037504 35.534269) with tilt (-11.461574 0 0)
  triclinic box = (0 0 0) to (11.461574 14.037504 35.534269) with tilt (-11.461574 0 0)
  triclinic box = (0 0 0) to (11.461574 14.037504 35.534269) with tilt (-11.461574 0 0)
  triclinic box = (0 0 0) to (11.461574 14.037504 35.534269) with tilt (-11.461574 0 0)
  triclinic box = (0 0 0) to (11.461574 14.037504 35.534269) with tilt (-11.461574 0 0)
echo none
run 0
Per MPI rank memory allocation (min/avg/max) = 3.392 | 3.392 | 3.392 Mbytes
    PotEng          Pxx           E_mol          E_coul    
-434.78564     -1138.7086      0              0            
Loop time of 1.084e-06 on 1 procs for 0 steps with 160 atoms

184.5% CPU use with 1 MPI tasks x no OpenMP threads

MPI task timing breakdown:
Section |  min time  |  avg time  |  max time  |%varavg| %total
---------------------------------------------------------------
Pair    | 0          | 0          | 0          |   0.0 |  0.00
Neigh   | 0          | 0          | 0          |   0.0 |  0.00
Comm    | 0          | 0          | 0          |   0.0 |  0.00
Output  | 0          | 0          | 0          |   0.0 |  0.00
Modify  | 0          | 0          | 0          |   0.0 |  0.00
Other   |            | 1.084e-06  |            |       |100.00

Nlocal:            160 ave         160 max         160 min
Histogram: 1 0 0 0 0 0 0 0 0 0
Nghost:            840 ave         840 max         840 min
Histogram: 1 0 0 0 0 0 0 0 0 0
Neighs:           9104 ave        9104 max        9104 min
Histogram: 1 0 0 0 0 0 0 0 0 0

Total # of neighbors = 9104
Ave neighs/atom = 56.9
Neighbor list builds = 0
Dangerous builds = 0
set atom * x 0.0 y 0.0 z 0.0
Setting atom values ...
  160 settings made for x
  160 settings made for y
  160 settings made for z
change_box all     x final 0 11.46152166412919 y final 0 14.037439876485688 z final 0 35.534107624271705      xy final -11.46152166412919 xz final 0.0 yz final 0.0 units box
Changing box ...
  triclinic box = (0 0 0) to (11.461522 14.037504 35.534269) with tilt (-11.461574 0 0)
  triclinic box = (0 0 0) to (11.461522 14.03744 35.534269) with tilt (-11.461574 0 0)
  triclinic box = (0 0 0) to (11.461522 14.03744 35.534108) with tilt (-11.461574 0 0)
  triclinic box = (0 0 0) to (11.461522 14.03744 35.534108) with tilt (-11.461522 0 0)
  triclinic box = (0 0 0) to (11.461522 14.03744 35.534108) with tilt (-11.461522 0 0)
  triclinic box = (0 0 0) to (11.461522 14.03744 35.534108) with tilt (-11.461522 0 0)
echo none
run 0
Per MPI rank memory allocation (min/avg/max) = 3.392 | 3.392 | 3.392 Mbytes
    PotEng          Pxx           E_mol          E_coul    
-434.78565     -1143.6941      0              0            
Loop time of 8.34e-07 on 1 procs for 0 steps with 160 atoms

239.8% CPU use with 1 MPI tasks x no OpenMP threads

MPI task timing breakdown:
Section |  min time  |  avg time  |  max time  |%varavg| %total
---------------------------------------------------------------
Pair    | 0          | 0          | 0          |   0.0 |  0.00
Neigh   | 0          | 0          | 0          |   0.0 |  0.00
Comm    | 0          | 0          | 0          |   0.0 |  0.00
Output  | 0          | 0          | 0          |   0.0 |  0.00
Modify  | 0          | 0          | 0          |   0.0 |  0.00
Other   |            | 8.34e-07   |            |       |100.00

Nlocal:            160 ave         160 max         160 min
Histogram: 1 0 0 0 0 0 0 0 0 0
Nghost:            840 ave         840 max         840 min
Histogram: 1 0 0 0 0 0 0 0 0 0
Neighs:           9104 ave        9104 max        9104 min
Histogram: 1 0 0 0 0 0 0 0 0 0

Total # of neighbors = 9104
Ave neighs/atom = 56.9
Neighbor list builds = 0
Dangerous builds = 0
Total wall time: 0:00:11
