LAMMPS (23 Jun 2022 - Update 4)
units metal
atom_style atomic
atom_modify map array sort 0 0
boundary p p p
box tilt large
region cell prism    0 3.939 0 3.939 0 3.939     0.0 0.0 0.0     units box
create_box 1 cell
Created triclinic box = (0 0 0) to (3.939 3.939 3.939) with tilt (0 0 0)
  1 by 1 by 1 MPI processor grid
echo none
Created 4 atoms
  using lattice units in triclinic box = (0 0 0) to (3.939 3.939 3.939) with tilt (0 0 0)
  create_atoms CPU = 0.000 seconds
Setting atom values ...
  1 settings made for type
Setting atom values ...
  1 settings made for type
Setting atom values ...
  1 settings made for type
Setting atom values ...
  1 settings made for type
pair_style eam/alloy
pair_coeff * * potentials/Pd.eam.alloy Pd
Reading eam/alloy potential file potentials/Pd.eam.alloy with DATE: 2018-03-30
mass 1 106.419999972624054862535558640957
variable pxx equal pxx
variable pyy equal pyy
variable pzz equal pzz
variable pxy equal pxy
variable pxz equal pxz
variable pyz equal pyz
thermo_style custom pe pxx emol ecoul
variable fx atom fx
variable fy atom fy
variable fz atom fz
variable pe equal pe
neigh_modify delay 0 every 1 check yes
echo none
run 0
WARNING: No fixes with time integration, atoms won't move (src/src/verlet.cpp:60)
Neighbor list info ...
  update every 1 steps, delay 0 steps, check yes
  max neighbors/atom: 2000, page size: 100000
  master list distance cutoff = 8.1511927
  ghost atom cutoff = 8.1511927
  binsize = 4.0755963, bins = 1 1 1
  1 neighbor lists, perpetual/occasional/extra = 1 0 0
  (1) pair eam/alloy, perpetual
      attributes: half, newton on
      pair build: half/bin/newton/tri
      stencil: half/bin/3d/tri
      bin: standard
Per MPI rank memory allocation (min/avg/max) = 3.245 | 3.245 | 3.245 Mbytes
    PotEng          Pxx           E_mol          E_coul    
-15.592329     -65375.193      0              0            
Loop time of 9.58e-07 on 1 procs for 0 steps with 4 atoms

208.8% CPU use with 1 MPI tasks x no OpenMP threads

MPI task timing breakdown:
Section |  min time  |  avg time  |  max time  |%varavg| %total
---------------------------------------------------------------
Pair    | 0          | 0          | 0          |   0.0 |  0.00
Neigh   | 0          | 0          | 0          |   0.0 |  0.00
Comm    | 0          | 0          | 0          |   0.0 |  0.00
Output  | 0          | 0          | 0          |   0.0 |  0.00
Modify  | 0          | 0          | 0          |   0.0 |  0.00
Other   |            | 9.58e-07   |            |       |100.00

Nlocal:              4 ave           4 max           4 min
Histogram: 1 0 0 0 0 0 0 0 0 0
Nghost:            662 ave         662 max         662 min
Histogram: 1 0 0 0 0 0 0 0 0 0
Neighs:            280 ave         280 max         280 min
Histogram: 1 0 0 0 0 0 0 0 0 0

Total # of neighbors = 280
Ave neighs/atom = 70
Neighbor list builds = 0
Dangerous builds = 0
set atom * x 0.0 y 0.0 z 0.0
Setting atom values ...
  4 settings made for x
  4 settings made for y
  4 settings made for z
change_box all     x final 0 3.2249804363741705 y final 0 3.2249804363741705 z final 0 3.2249804363741705      xy final 0.0 xz final 0.0 yz final 0.0 units box
Changing box ...
  triclinic box = (0 0 0) to (3.2249804 3.939 3.939) with tilt (0 0 0)
  triclinic box = (0 0 0) to (3.2249804 3.2249804 3.939) with tilt (0 0 0)
  triclinic box = (0 0 0) to (3.2249804 3.2249804 3.2249804) with tilt (0 0 0)
  triclinic box = (0 0 0) to (3.2249804 3.2249804 3.2249804) with tilt (0 0 0)
  triclinic box = (0 0 0) to (3.2249804 3.2249804 3.2249804) with tilt (0 0 0)
  triclinic box = (0 0 0) to (3.2249804 3.2249804 3.2249804) with tilt (0 0 0)
echo none
run 0
WARNING: No fixes with time integration, atoms won't move (src/src/verlet.cpp:60)
Per MPI rank memory allocation (min/avg/max) = 3.252 | 3.252 | 3.252 Mbytes
    PotEng          Pxx           E_mol          E_coul    
 4.644293       4414313.1      0              0            
Loop time of 1.084e-06 on 1 procs for 0 steps with 4 atoms

184.5% CPU use with 1 MPI tasks x no OpenMP threads

MPI task timing breakdown:
Section |  min time  |  avg time  |  max time  |%varavg| %total
---------------------------------------------------------------
Pair    | 0          | 0          | 0          |   0.0 |  0.00
Neigh   | 0          | 0          | 0          |   0.0 |  0.00
Comm    | 0          | 0          | 0          |   0.0 |  0.00
Output  | 0          | 0          | 0          |   0.0 |  0.00
Modify  | 0          | 0          | 0          |   0.0 |  0.00
Other   |            | 1.084e-06  |            |       |100.00

Nlocal:              4 ave           4 max           4 min
Histogram: 1 0 0 0 0 0 0 0 0 0
Nghost:           1094 ave        1094 max        1094 min
Histogram: 1 0 0 0 0 0 0 0 0 0
Neighs:            496 ave         496 max         496 min
Histogram: 1 0 0 0 0 0 0 0 0 0

Total # of neighbors = 496
Ave neighs/atom = 124
Neighbor list builds = 0
Dangerous builds = 0
set atom * x 0.0 y 0.0 z 0.0
Setting atom values ...
  4 settings made for x
  4 settings made for y
  4 settings made for z
change_box all     x final 0 3.8956050321994047 y final 0 3.8956050321994047 z final 0 3.8956050321994047      xy final 0.0 xz final 0.0 yz final 0.0 units box
Changing box ...
  triclinic box = (0 0 0) to (3.895605 3.2249804 3.2249804) with tilt (0 0 0)
  triclinic box = (0 0 0) to (3.895605 3.895605 3.2249804) with tilt (0 0 0)
  triclinic box = (0 0 0) to (3.895605 3.895605 3.895605) with tilt (0 0 0)
  triclinic box = (0 0 0) to (3.895605 3.895605 3.895605) with tilt (0 0 0)
  triclinic box = (0 0 0) to (3.895605 3.895605 3.895605) with tilt (0 0 0)
  triclinic box = (0 0 0) to (3.895605 3.895605 3.895605) with tilt (0 0 0)
echo none
run 0
WARNING: No fixes with time integration, atoms won't move (src/src/verlet.cpp:60)
Per MPI rank memory allocation (min/avg/max) = 3.252 | 3.252 | 3.252 Mbytes
    PotEng          Pxx           E_mol          E_coul    
-15.639365     -7793.0854      0              0            
Loop time of 1.083e-06 on 1 procs for 0 steps with 4 atoms

184.7% CPU use with 1 MPI tasks x no OpenMP threads

MPI task timing breakdown:
Section |  min time  |  avg time  |  max time  |%varavg| %total
---------------------------------------------------------------
Pair    | 0          | 0          | 0          |   0.0 |  0.00
Neigh   | 0          | 0          | 0          |   0.0 |  0.00
Comm    | 0          | 0          | 0          |   0.0 |  0.00
Output  | 0          | 0          | 0          |   0.0 |  0.00
Modify  | 0          | 0          | 0          |   0.0 |  0.00
Other   |            | 1.083e-06  |            |       |100.00

Nlocal:              4 ave           4 max           4 min
Histogram: 1 0 0 0 0 0 0 0 0 0
Nghost:            662 ave         662 max         662 min
Histogram: 1 0 0 0 0 0 0 0 0 0
Neighs:            280 ave         280 max         280 min
Histogram: 1 0 0 0 0 0 0 0 0 0

Total # of neighbors = 280
Ave neighs/atom = 70
Neighbor list builds = 0
Dangerous builds = 0
set atom * x 0.0 y 0.0 z 0.0
Setting atom values ...
  4 settings made for x
  4 settings made for y
  4 settings made for z
change_box all     x final 0 3.8899843402542076 y final 0 3.8899843402542076 z final 0 3.8899843402542076      xy final 0.0 xz final 0.0 yz final 0.0 units box
Changing box ...
  triclinic box = (0 0 0) to (3.8899843 3.895605 3.895605) with tilt (0 0 0)
  triclinic box = (0 0 0) to (3.8899843 3.8899843 3.895605) with tilt (0 0 0)
  triclinic box = (0 0 0) to (3.8899843 3.8899843 3.8899843) with tilt (0 0 0)
  triclinic box = (0 0 0) to (3.8899843 3.8899843 3.8899843) with tilt (0 0 0)
  triclinic box = (0 0 0) to (3.8899843 3.8899843 3.8899843) with tilt (0 0 0)
  triclinic box = (0 0 0) to (3.8899843 3.8899843 3.8899843) with tilt (0 0 0)
echo none
run 0
WARNING: No fixes with time integration, atoms won't move (src/src/verlet.cpp:60)
Per MPI rank memory allocation (min/avg/max) = 3.252 | 3.252 | 3.252 Mbytes
    PotEng          Pxx           E_mol          E_coul    
-15.63998       560.05421      0              0            
Loop time of 1.667e-06 on 1 procs for 0 steps with 4 atoms

240.0% CPU use with 1 MPI tasks x no OpenMP threads

MPI task timing breakdown:
Section |  min time  |  avg time  |  max time  |%varavg| %total
---------------------------------------------------------------
Pair    | 0          | 0          | 0          |   0.0 |  0.00
Neigh   | 0          | 0          | 0          |   0.0 |  0.00
Comm    | 0          | 0          | 0          |   0.0 |  0.00
Output  | 0          | 0          | 0          |   0.0 |  0.00
Modify  | 0          | 0          | 0          |   0.0 |  0.00
Other   |            | 1.667e-06  |            |       |100.00

Nlocal:              4 ave           4 max           4 min
Histogram: 1 0 0 0 0 0 0 0 0 0
Nghost:            662 ave         662 max         662 min
Histogram: 1 0 0 0 0 0 0 0 0 0
Neighs:            280 ave         280 max         280 min
Histogram: 1 0 0 0 0 0 0 0 0 0

Total # of neighbors = 280
Ave neighs/atom = 70
Neighbor list builds = 0
Dangerous builds = 0
set atom * x 0.0 y 0.0 z 0.0
Setting atom values ...
  4 settings made for x
  4 settings made for y
  4 settings made for z
change_box all     x final 0 3.890359418742356 y final 0 3.890359418742356 z final 0 3.890359418742356      xy final 0.0 xz final 0.0 yz final 0.0 units box
Changing box ...
  triclinic box = (0 0 0) to (3.8903594 3.8899843 3.8899843) with tilt (0 0 0)
  triclinic box = (0 0 0) to (3.8903594 3.8903594 3.8899843) with tilt (0 0 0)
  triclinic box = (0 0 0) to (3.8903594 3.8903594 3.8903594) with tilt (0 0 0)
  triclinic box = (0 0 0) to (3.8903594 3.8903594 3.8903594) with tilt (0 0 0)
  triclinic box = (0 0 0) to (3.8903594 3.8903594 3.8903594) with tilt (0 0 0)
  triclinic box = (0 0 0) to (3.8903594 3.8903594 3.8903594) with tilt (0 0 0)
echo none
run 0
WARNING: No fixes with time integration, atoms won't move (src/src/verlet.cpp:60)
Per MPI rank memory allocation (min/avg/max) = 3.252 | 3.252 | 3.252 Mbytes
    PotEng          Pxx           E_mol          E_coul    
-15.639947      7.4188778      0              0            
Loop time of 1.708e-06 on 1 procs for 0 steps with 4 atoms

175.6% CPU use with 1 MPI tasks x no OpenMP threads

MPI task timing breakdown:
Section |  min time  |  avg time  |  max time  |%varavg| %total
---------------------------------------------------------------
Pair    | 0          | 0          | 0          |   0.0 |  0.00
Neigh   | 0          | 0          | 0          |   0.0 |  0.00
Comm    | 0          | 0          | 0          |   0.0 |  0.00
Output  | 0          | 0          | 0          |   0.0 |  0.00
Modify  | 0          | 0          | 0          |   0.0 |  0.00
Other   |            | 1.708e-06  |            |       |100.00

Nlocal:              4 ave           4 max           4 min
Histogram: 1 0 0 0 0 0 0 0 0 0
Nghost:            662 ave         662 max         662 min
Histogram: 1 0 0 0 0 0 0 0 0 0
Neighs:            280 ave         280 max         280 min
Histogram: 1 0 0 0 0 0 0 0 0 0

Total # of neighbors = 280
Ave neighs/atom = 70
Neighbor list builds = 0
Dangerous builds = 0
set atom * x 0.0 y 0.0 z 0.0
Setting atom values ...
  4 settings made for x
  4 settings made for y
  4 settings made for z
change_box all     x final 0 3.8899946765906233 y final 0 3.8899946765906233 z final 0 3.8899946765906233      xy final 0.0 xz final 0.0 yz final 0.0 units box
Changing box ...
  triclinic box = (0 0 0) to (3.8899947 3.8903594 3.8903594) with tilt (0 0 0)
  triclinic box = (0 0 0) to (3.8899947 3.8899947 3.8903594) with tilt (0 0 0)
  triclinic box = (0 0 0) to (3.8899947 3.8899947 3.8899947) with tilt (0 0 0)
  triclinic box = (0 0 0) to (3.8899947 3.8899947 3.8899947) with tilt (0 0 0)
  triclinic box = (0 0 0) to (3.8899947 3.8899947 3.8899947) with tilt (0 0 0)
  triclinic box = (0 0 0) to (3.8899947 3.8899947 3.8899947) with tilt (0 0 0)
echo none
run 0
WARNING: No fixes with time integration, atoms won't move (src/src/verlet.cpp:60)
Per MPI rank memory allocation (min/avg/max) = 3.252 | 3.252 | 3.252 Mbytes
    PotEng          Pxx           E_mol          E_coul    
-15.63998       544.48084      0              0            
Loop time of 7.91e-07 on 1 procs for 0 steps with 4 atoms

0.0% CPU use with 1 MPI tasks x no OpenMP threads

MPI task timing breakdown:
Section |  min time  |  avg time  |  max time  |%varavg| %total
---------------------------------------------------------------
Pair    | 0          | 0          | 0          |   0.0 |  0.00
Neigh   | 0          | 0          | 0          |   0.0 |  0.00
Comm    | 0          | 0          | 0          |   0.0 |  0.00
Output  | 0          | 0          | 0          |   0.0 |  0.00
Modify  | 0          | 0          | 0          |   0.0 |  0.00
Other   |            | 7.91e-07   |            |       |100.00

Nlocal:              4 ave           4 max           4 min
Histogram: 1 0 0 0 0 0 0 0 0 0
Nghost:            662 ave         662 max         662 min
Histogram: 1 0 0 0 0 0 0 0 0 0
Neighs:            280 ave         280 max         280 min
Histogram: 1 0 0 0 0 0 0 0 0 0

Total # of neighbors = 280
Ave neighs/atom = 70
Neighbor list builds = 0
Dangerous builds = 0
set atom * x 0.0 y 0.0 z 0.0
Setting atom values ...
  4 settings made for x
  4 settings made for y
  4 settings made for z
change_box all     x final 0 3.890235402573716 y final 0 3.890235402573716 z final 0 3.890235402573716      xy final 0.0 xz final 0.0 yz final 0.0 units box
Changing box ...
  triclinic box = (0 0 0) to (3.8902354 3.8899947 3.8899947) with tilt (0 0 0)
  triclinic box = (0 0 0) to (3.8902354 3.8902354 3.8899947) with tilt (0 0 0)
  triclinic box = (0 0 0) to (3.8902354 3.8902354 3.8902354) with tilt (0 0 0)
  triclinic box = (0 0 0) to (3.8902354 3.8902354 3.8902354) with tilt (0 0 0)
  triclinic box = (0 0 0) to (3.8902354 3.8902354 3.8902354) with tilt (0 0 0)
  triclinic box = (0 0 0) to (3.8902354 3.8902354 3.8902354) with tilt (0 0 0)
echo none
run 0
WARNING: No fixes with time integration, atoms won't move (src/src/verlet.cpp:60)
Per MPI rank memory allocation (min/avg/max) = 3.252 | 3.252 | 3.252 Mbytes
    PotEng          Pxx           E_mol          E_coul    
-15.639982      181.97846      0              0            
Loop time of 8.34e-07 on 1 procs for 0 steps with 4 atoms

239.8% CPU use with 1 MPI tasks x no OpenMP threads

MPI task timing breakdown:
Section |  min time  |  avg time  |  max time  |%varavg| %total
---------------------------------------------------------------
Pair    | 0          | 0          | 0          |   0.0 |  0.00
Neigh   | 0          | 0          | 0          |   0.0 |  0.00
Comm    | 0          | 0          | 0          |   0.0 |  0.00
Output  | 0          | 0          | 0          |   0.0 |  0.00
Modify  | 0          | 0          | 0          |   0.0 |  0.00
Other   |            | 8.34e-07   |            |       |100.00

Nlocal:              4 ave           4 max           4 min
Histogram: 1 0 0 0 0 0 0 0 0 0
Nghost:            662 ave         662 max         662 min
Histogram: 1 0 0 0 0 0 0 0 0 0
Neighs:            280 ave         280 max         280 min
Histogram: 1 0 0 0 0 0 0 0 0 0

Total # of neighbors = 280
Ave neighs/atom = 70
Neighbor list builds = 0
Dangerous builds = 0
set atom * x 0.0 y 0.0 z 0.0
Setting atom values ...
  4 settings made for x
  4 settings made for y
  4 settings made for z
change_box all     x final 0 3.501211862316344 y final 0 3.501211862316344 z final 0 3.501211862316344      xy final 0.0 xz final 0.0 yz final 0.0 units box
Changing box ...
  triclinic box = (0 0 0) to (3.5012119 3.8902354 3.8902354) with tilt (0 0 0)
  triclinic box = (0 0 0) to (3.5012119 3.5012119 3.8902354) with tilt (0 0 0)
  triclinic box = (0 0 0) to (3.5012119 3.5012119 3.5012119) with tilt (0 0 0)
  triclinic box = (0 0 0) to (3.5012119 3.5012119 3.5012119) with tilt (0 0 0)
  triclinic box = (0 0 0) to (3.5012119 3.5012119 3.5012119) with tilt (0 0 0)
  triclinic box = (0 0 0) to (3.5012119 3.5012119 3.5012119) with tilt (0 0 0)
echo none
run 0
WARNING: No fixes with time integration, atoms won't move (src/src/verlet.cpp:60)
Per MPI rank memory allocation (min/avg/max) = 3.252 | 3.252 | 3.252 Mbytes
    PotEng          Pxx           E_mol          E_coul    
-10.601692      1372585.6      0              0            
Loop time of 1.125e-06 on 1 procs for 0 steps with 4 atoms

0.0% CPU use with 1 MPI tasks x no OpenMP threads

MPI task timing breakdown:
Section |  min time  |  avg time  |  max time  |%varavg| %total
---------------------------------------------------------------
Pair    | 0          | 0          | 0          |   0.0 |  0.00
Neigh   | 0          | 0          | 0          |   0.0 |  0.00
Comm    | 0          | 0          | 0          |   0.0 |  0.00
Output  | 0          | 0          | 0          |   0.0 |  0.00
Modify  | 0          | 0          | 0          |   0.0 |  0.00
Other   |            | 1.125e-06  |            |       |100.00

Nlocal:              4 ave           4 max           4 min
Histogram: 1 0 0 0 0 0 0 0 0 0
Nghost:            662 ave         662 max         662 min
Histogram: 1 0 0 0 0 0 0 0 0 0
Neighs:            400 ave         400 max         400 min
Histogram: 1 0 0 0 0 0 0 0 0 0

Total # of neighbors = 400
Ave neighs/atom = 100
Neighbor list builds = 0
Dangerous builds = 0
set atom * x 0.0 y 0.0 z 0.0
Setting atom values ...
  4 settings made for x
  4 settings made for y
  4 settings made for z
change_box all     x final 0 3.5401142163420816 y final 0 3.5401142163420816 z final 0 3.5401142163420816      xy final 0.0 xz final 0.0 yz final 0.0 units box
Changing box ...
  triclinic box = (0 0 0) to (3.5401142 3.5012119 3.5012119) with tilt (0 0 0)
  triclinic box = (0 0 0) to (3.5401142 3.5401142 3.5012119) with tilt (0 0 0)
  triclinic box = (0 0 0) to (3.5401142 3.5401142 3.5401142) with tilt (0 0 0)
  triclinic box = (0 0 0) to (3.5401142 3.5401142 3.5401142) with tilt (0 0 0)
  triclinic box = (0 0 0) to (3.5401142 3.5401142 3.5401142) with tilt (0 0 0)
  triclinic box = (0 0 0) to (3.5401142 3.5401142 3.5401142) with tilt (0 0 0)
echo none
run 0
WARNING: No fixes with time integration, atoms won't move (src/src/verlet.cpp:60)
Per MPI rank memory allocation (min/avg/max) = 3.252 | 3.252 | 3.252 Mbytes
    PotEng          Pxx           E_mol          E_coul    
-11.732775      1138934.2      0              0            
Loop time of 1.084e-06 on 1 procs for 0 steps with 4 atoms

0.0% CPU use with 1 MPI tasks x no OpenMP threads

MPI task timing breakdown:
Section |  min time  |  avg time  |  max time  |%varavg| %total
---------------------------------------------------------------
Pair    | 0          | 0          | 0          |   0.0 |  0.00
Neigh   | 0          | 0          | 0          |   0.0 |  0.00
Comm    | 0          | 0          | 0          |   0.0 |  0.00
Output  | 0          | 0          | 0          |   0.0 |  0.00
Modify  | 0          | 0          | 0          |   0.0 |  0.00
Other   |            | 1.084e-06  |            |       |100.00

Nlocal:              4 ave           4 max           4 min
Histogram: 1 0 0 0 0 0 0 0 0 0
Nghost:            662 ave         662 max         662 min
Histogram: 1 0 0 0 0 0 0 0 0 0
Neighs:            400 ave         400 max         400 min
Histogram: 1 0 0 0 0 0 0 0 0 0

Total # of neighbors = 400
Ave neighs/atom = 100
Neighbor list builds = 0
Dangerous builds = 0
set atom * x 0.0 y 0.0 z 0.0
Setting atom values ...
  4 settings made for x
  4 settings made for y
  4 settings made for z
change_box all     x final 0 3.5790165703678185 y final 0 3.5790165703678185 z final 0 3.5790165703678185      xy final 0.0 xz final 0.0 yz final 0.0 units box
Changing box ...
  triclinic box = (0 0 0) to (3.5790166 3.5401142 3.5401142) with tilt (0 0 0)
  triclinic box = (0 0 0) to (3.5790166 3.5790166 3.5401142) with tilt (0 0 0)
  triclinic box = (0 0 0) to (3.5790166 3.5790166 3.5790166) with tilt (0 0 0)
  triclinic box = (0 0 0) to (3.5790166 3.5790166 3.5790166) with tilt (0 0 0)
  triclinic box = (0 0 0) to (3.5790166 3.5790166 3.5790166) with tilt (0 0 0)
  triclinic box = (0 0 0) to (3.5790166 3.5790166 3.5790166) with tilt (0 0 0)
echo none
run 0
WARNING: No fixes with time integration, atoms won't move (src/src/verlet.cpp:60)
Per MPI rank memory allocation (min/avg/max) = 3.252 | 3.252 | 3.252 Mbytes
    PotEng          Pxx           E_mol          E_coul    
-12.687066      934127.19      0              0            
Loop time of 1.125e-06 on 1 procs for 0 steps with 4 atoms

177.8% CPU use with 1 MPI tasks x no OpenMP threads

MPI task timing breakdown:
Section |  min time  |  avg time  |  max time  |%varavg| %total
---------------------------------------------------------------
Pair    | 0          | 0          | 0          |   0.0 |  0.00
Neigh   | 0          | 0          | 0          |   0.0 |  0.00
Comm    | 0          | 0          | 0          |   0.0 |  0.00
Output  | 0          | 0          | 0          |   0.0 |  0.00
Modify  | 0          | 0          | 0          |   0.0 |  0.00
Other   |            | 1.125e-06  |            |       |100.00

Nlocal:              4 ave           4 max           4 min
Histogram: 1 0 0 0 0 0 0 0 0 0
Nghost:            662 ave         662 max         662 min
Histogram: 1 0 0 0 0 0 0 0 0 0
Neighs:            400 ave         400 max         400 min
Histogram: 1 0 0 0 0 0 0 0 0 0

Total # of neighbors = 400
Ave neighs/atom = 100
Neighbor list builds = 0
Dangerous builds = 0
set atom * x 0.0 y 0.0 z 0.0
Setting atom values ...
  4 settings made for x
  4 settings made for y
  4 settings made for z
change_box all     x final 0 3.617918924393556 y final 0 3.617918924393556 z final 0 3.617918924393556      xy final 0.0 xz final 0.0 yz final 0.0 units box
Changing box ...
  triclinic box = (0 0 0) to (3.6179189 3.5790166 3.5790166) with tilt (0 0 0)
  triclinic box = (0 0 0) to (3.6179189 3.6179189 3.5790166) with tilt (0 0 0)
  triclinic box = (0 0 0) to (3.6179189 3.6179189 3.6179189) with tilt (0 0 0)
  triclinic box = (0 0 0) to (3.6179189 3.6179189 3.6179189) with tilt (0 0 0)
  triclinic box = (0 0 0) to (3.6179189 3.6179189 3.6179189) with tilt (0 0 0)
  triclinic box = (0 0 0) to (3.6179189 3.6179189 3.6179189) with tilt (0 0 0)
echo none
run 0
WARNING: No fixes with time integration, atoms won't move (src/src/verlet.cpp:60)
Per MPI rank memory allocation (min/avg/max) = 3.252 | 3.252 | 3.252 Mbytes
    PotEng          Pxx           E_mol          E_coul    
-13.481069      753850.02      0              0            
Loop time of 8.75e-07 on 1 procs for 0 steps with 4 atoms

114.3% CPU use with 1 MPI tasks x no OpenMP threads

MPI task timing breakdown:
Section |  min time  |  avg time  |  max time  |%varavg| %total
---------------------------------------------------------------
Pair    | 0          | 0          | 0          |   0.0 |  0.00
Neigh   | 0          | 0          | 0          |   0.0 |  0.00
Comm    | 0          | 0          | 0          |   0.0 |  0.00
Output  | 0          | 0          | 0          |   0.0 |  0.00
Modify  | 0          | 0          | 0          |   0.0 |  0.00
Other   |            | 8.75e-07   |            |       |100.00

Nlocal:              4 ave           4 max           4 min
Histogram: 1 0 0 0 0 0 0 0 0 0
Nghost:            662 ave         662 max         662 min
Histogram: 1 0 0 0 0 0 0 0 0 0
Neighs:            400 ave         400 max         400 min
Histogram: 1 0 0 0 0 0 0 0 0 0

Total # of neighbors = 400
Ave neighs/atom = 100
Neighbor list builds = 0
Dangerous builds = 0
set atom * x 0.0 y 0.0 z 0.0
Setting atom values ...
  4 settings made for x
  4 settings made for y
  4 settings made for z
change_box all     x final 0 3.6568212784192933 y final 0 3.6568212784192933 z final 0 3.6568212784192933      xy final 0.0 xz final 0.0 yz final 0.0 units box
Changing box ...
  triclinic box = (0 0 0) to (3.6568213 3.6179189 3.6179189) with tilt (0 0 0)
  triclinic box = (0 0 0) to (3.6568213 3.6568213 3.6179189) with tilt (0 0 0)
  triclinic box = (0 0 0) to (3.6568213 3.6568213 3.6568213) with tilt (0 0 0)
  triclinic box = (0 0 0) to (3.6568213 3.6568213 3.6568213) with tilt (0 0 0)
  triclinic box = (0 0 0) to (3.6568213 3.6568213 3.6568213) with tilt (0 0 0)
  triclinic box = (0 0 0) to (3.6568213 3.6568213 3.6568213) with tilt (0 0 0)
echo none
run 0
WARNING: No fixes with time integration, atoms won't move (src/src/verlet.cpp:60)
Per MPI rank memory allocation (min/avg/max) = 3.252 | 3.252 | 3.252 Mbytes
    PotEng          Pxx           E_mol          E_coul    
-14.129039      594670.04      0              0            
Loop time of 1.083e-06 on 1 procs for 0 steps with 4 atoms

0.0% CPU use with 1 MPI tasks x no OpenMP threads

MPI task timing breakdown:
Section |  min time  |  avg time  |  max time  |%varavg| %total
---------------------------------------------------------------
Pair    | 0          | 0          | 0          |   0.0 |  0.00
Neigh   | 0          | 0          | 0          |   0.0 |  0.00
Comm    | 0          | 0          | 0          |   0.0 |  0.00
Output  | 0          | 0          | 0          |   0.0 |  0.00
Modify  | 0          | 0          | 0          |   0.0 |  0.00
Other   |            | 1.083e-06  |            |       |100.00

Nlocal:              4 ave           4 max           4 min
Histogram: 1 0 0 0 0 0 0 0 0 0
Nghost:            662 ave         662 max         662 min
Histogram: 1 0 0 0 0 0 0 0 0 0
Neighs:            352 ave         352 max         352 min
Histogram: 1 0 0 0 0 0 0 0 0 0

Total # of neighbors = 352
Ave neighs/atom = 88
Neighbor list builds = 0
Dangerous builds = 0
set atom * x 0.0 y 0.0 z 0.0
Setting atom values ...
  4 settings made for x
  4 settings made for y
  4 settings made for z
change_box all     x final 0 3.69572363244503 y final 0 3.69572363244503 z final 0 3.69572363244503      xy final 0.0 xz final 0.0 yz final 0.0 units box
Changing box ...
  triclinic box = (0 0 0) to (3.6957236 3.6568213 3.6568213) with tilt (0 0 0)
  triclinic box = (0 0 0) to (3.6957236 3.6957236 3.6568213) with tilt (0 0 0)
  triclinic box = (0 0 0) to (3.6957236 3.6957236 3.6957236) with tilt (0 0 0)
  triclinic box = (0 0 0) to (3.6957236 3.6957236 3.6957236) with tilt (0 0 0)
  triclinic box = (0 0 0) to (3.6957236 3.6957236 3.6957236) with tilt (0 0 0)
  triclinic box = (0 0 0) to (3.6957236 3.6957236 3.6957236) with tilt (0 0 0)
echo none
run 0
WARNING: No fixes with time integration, atoms won't move (src/src/verlet.cpp:60)
Per MPI rank memory allocation (min/avg/max) = 3.252 | 3.252 | 3.252 Mbytes
    PotEng          Pxx           E_mol          E_coul    
-14.643533      453927.33      0              0            
Loop time of 7.08e-07 on 1 procs for 0 steps with 4 atoms

282.5% CPU use with 1 MPI tasks x no OpenMP threads

MPI task timing breakdown:
Section |  min time  |  avg time  |  max time  |%varavg| %total
---------------------------------------------------------------
Pair    | 0          | 0          | 0          |   0.0 |  0.00
Neigh   | 0          | 0          | 0          |   0.0 |  0.00
Comm    | 0          | 0          | 0          |   0.0 |  0.00
Output  | 0          | 0          | 0          |   0.0 |  0.00
Modify  | 0          | 0          | 0          |   0.0 |  0.00
Other   |            | 7.08e-07   |            |       |100.00

Nlocal:              4 ave           4 max           4 min
Histogram: 1 0 0 0 0 0 0 0 0 0
Nghost:            662 ave         662 max         662 min
Histogram: 1 0 0 0 0 0 0 0 0 0
Neighs:            352 ave         352 max         352 min
Histogram: 1 0 0 0 0 0 0 0 0 0

Total # of neighbors = 352
Ave neighs/atom = 88
Neighbor list builds = 0
Dangerous builds = 0
set atom * x 0.0 y 0.0 z 0.0
Setting atom values ...
  4 settings made for x
  4 settings made for y
  4 settings made for z
change_box all     x final 0 3.7346259864707676 y final 0 3.7346259864707676 z final 0 3.7346259864707676      xy final 0.0 xz final 0.0 yz final 0.0 units box
Changing box ...
  triclinic box = (0 0 0) to (3.734626 3.6957236 3.6957236) with tilt (0 0 0)
  triclinic box = (0 0 0) to (3.734626 3.734626 3.6957236) with tilt (0 0 0)
  triclinic box = (0 0 0) to (3.734626 3.734626 3.734626) with tilt (0 0 0)
  triclinic box = (0 0 0) to (3.734626 3.734626 3.734626) with tilt (0 0 0)
  triclinic box = (0 0 0) to (3.734626 3.734626 3.734626) with tilt (0 0 0)
  triclinic box = (0 0 0) to (3.734626 3.734626 3.734626) with tilt (0 0 0)
echo none
run 0
WARNING: No fixes with time integration, atoms won't move (src/src/verlet.cpp:60)
Per MPI rank memory allocation (min/avg/max) = 3.252 | 3.252 | 3.252 Mbytes
    PotEng          Pxx           E_mol          E_coul    
-15.035937      329717.6       0              0            
Loop time of 6.67e-07 on 1 procs for 0 steps with 4 atoms

0.0% CPU use with 1 MPI tasks x no OpenMP threads

MPI task timing breakdown:
Section |  min time  |  avg time  |  max time  |%varavg| %total
---------------------------------------------------------------
Pair    | 0          | 0          | 0          |   0.0 |  0.00
Neigh   | 0          | 0          | 0          |   0.0 |  0.00
Comm    | 0          | 0          | 0          |   0.0 |  0.00
Output  | 0          | 0          | 0          |   0.0 |  0.00
Modify  | 0          | 0          | 0          |   0.0 |  0.00
Other   |            | 6.67e-07   |            |       |100.00

Nlocal:              4 ave           4 max           4 min
Histogram: 1 0 0 0 0 0 0 0 0 0
Nghost:            662 ave         662 max         662 min
Histogram: 1 0 0 0 0 0 0 0 0 0
Neighs:            352 ave         352 max         352 min
Histogram: 1 0 0 0 0 0 0 0 0 0

Total # of neighbors = 352
Ave neighs/atom = 88
Neighbor list builds = 0
Dangerous builds = 0
set atom * x 0.0 y 0.0 z 0.0
Setting atom values ...
  4 settings made for x
  4 settings made for y
  4 settings made for z
change_box all     x final 0 3.7735283404965045 y final 0 3.7735283404965045 z final 0 3.7735283404965045      xy final 0.0 xz final 0.0 yz final 0.0 units box
Changing box ...
  triclinic box = (0 0 0) to (3.7735283 3.734626 3.734626) with tilt (0 0 0)
  triclinic box = (0 0 0) to (3.7735283 3.7735283 3.734626) with tilt (0 0 0)
  triclinic box = (0 0 0) to (3.7735283 3.7735283 3.7735283) with tilt (0 0 0)
  triclinic box = (0 0 0) to (3.7735283 3.7735283 3.7735283) with tilt (0 0 0)
  triclinic box = (0 0 0) to (3.7735283 3.7735283 3.7735283) with tilt (0 0 0)
  triclinic box = (0 0 0) to (3.7735283 3.7735283 3.7735283) with tilt (0 0 0)
echo none
run 0
WARNING: No fixes with time integration, atoms won't move (src/src/verlet.cpp:60)
Per MPI rank memory allocation (min/avg/max) = 3.252 | 3.252 | 3.252 Mbytes
    PotEng          Pxx           E_mol          E_coul    
-15.317087      220907.1       0              0            
Loop time of 1.042e-06 on 1 procs for 0 steps with 4 atoms

96.0% CPU use with 1 MPI tasks x no OpenMP threads

MPI task timing breakdown:
Section |  min time  |  avg time  |  max time  |%varavg| %total
---------------------------------------------------------------
Pair    | 0          | 0          | 0          |   0.0 |  0.00
Neigh   | 0          | 0          | 0          |   0.0 |  0.00
Comm    | 0          | 0          | 0          |   0.0 |  0.00
Output  | 0          | 0          | 0          |   0.0 |  0.00
Modify  | 0          | 0          | 0          |   0.0 |  0.00
Other   |            | 1.042e-06  |            |       |100.00

Nlocal:              4 ave           4 max           4 min
Histogram: 1 0 0 0 0 0 0 0 0 0
Nghost:            662 ave         662 max         662 min
Histogram: 1 0 0 0 0 0 0 0 0 0
Neighs:            352 ave         352 max         352 min
Histogram: 1 0 0 0 0 0 0 0 0 0

Total # of neighbors = 352
Ave neighs/atom = 88
Neighbor list builds = 0
Dangerous builds = 0
set atom * x 0.0 y 0.0 z 0.0
Setting atom values ...
  4 settings made for x
  4 settings made for y
  4 settings made for z
change_box all     x final 0 3.812430694522242 y final 0 3.812430694522242 z final 0 3.812430694522242      xy final 0.0 xz final 0.0 yz final 0.0 units box
Changing box ...
  triclinic box = (0 0 0) to (3.8124307 3.7735283 3.7735283) with tilt (0 0 0)
  triclinic box = (0 0 0) to (3.8124307 3.8124307 3.7735283) with tilt (0 0 0)
  triclinic box = (0 0 0) to (3.8124307 3.8124307 3.8124307) with tilt (0 0 0)
  triclinic box = (0 0 0) to (3.8124307 3.8124307 3.8124307) with tilt (0 0 0)
  triclinic box = (0 0 0) to (3.8124307 3.8124307 3.8124307) with tilt (0 0 0)
  triclinic box = (0 0 0) to (3.8124307 3.8124307 3.8124307) with tilt (0 0 0)
echo none
run 0
WARNING: No fixes with time integration, atoms won't move (src/src/verlet.cpp:60)
Per MPI rank memory allocation (min/avg/max) = 3.252 | 3.252 | 3.252 Mbytes
    PotEng          Pxx           E_mol          E_coul    
-15.500703      135274.51      0              0            
Loop time of 9.17e-07 on 1 procs for 0 steps with 4 atoms

109.1% CPU use with 1 MPI tasks x no OpenMP threads

MPI task timing breakdown:
Section |  min time  |  avg time  |  max time  |%varavg| %total
---------------------------------------------------------------
Pair    | 0          | 0          | 0          |   0.0 |  0.00
Neigh   | 0          | 0          | 0          |   0.0 |  0.00
Comm    | 0          | 0          | 0          |   0.0 |  0.00
Output  | 0          | 0          | 0          |   0.0 |  0.00
Modify  | 0          | 0          | 0          |   0.0 |  0.00
Other   |            | 9.17e-07   |            |       |100.00

Nlocal:              4 ave           4 max           4 min
Histogram: 1 0 0 0 0 0 0 0 0 0
Nghost:            662 ave         662 max         662 min
Histogram: 1 0 0 0 0 0 0 0 0 0
Neighs:            352 ave         352 max         352 min
Histogram: 1 0 0 0 0 0 0 0 0 0

Total # of neighbors = 352
Ave neighs/atom = 88
Neighbor list builds = 0
Dangerous builds = 0
set atom * x 0.0 y 0.0 z 0.0
Setting atom values ...
  4 settings made for x
  4 settings made for y
  4 settings made for z
change_box all     x final 0 3.851333048547979 y final 0 3.851333048547979 z final 0 3.851333048547979      xy final 0.0 xz final 0.0 yz final 0.0 units box
Changing box ...
  triclinic box = (0 0 0) to (3.851333 3.8124307 3.8124307) with tilt (0 0 0)
  triclinic box = (0 0 0) to (3.851333 3.851333 3.8124307) with tilt (0 0 0)
  triclinic box = (0 0 0) to (3.851333 3.851333 3.851333) with tilt (0 0 0)
  triclinic box = (0 0 0) to (3.851333 3.851333 3.851333) with tilt (0 0 0)
  triclinic box = (0 0 0) to (3.851333 3.851333 3.851333) with tilt (0 0 0)
  triclinic box = (0 0 0) to (3.851333 3.851333 3.851333) with tilt (0 0 0)
echo none
run 0
WARNING: No fixes with time integration, atoms won't move (src/src/verlet.cpp:60)
Per MPI rank memory allocation (min/avg/max) = 3.252 | 3.252 | 3.252 Mbytes
    PotEng          Pxx           E_mol          E_coul    
-15.606201      63488.145      0              0            
Loop time of 9.16e-07 on 1 procs for 0 steps with 4 atoms

109.2% CPU use with 1 MPI tasks x no OpenMP threads

MPI task timing breakdown:
Section |  min time  |  avg time  |  max time  |%varavg| %total
---------------------------------------------------------------
Pair    | 0          | 0          | 0          |   0.0 |  0.00
Neigh   | 0          | 0          | 0          |   0.0 |  0.00
Comm    | 0          | 0          | 0          |   0.0 |  0.00
Output  | 0          | 0          | 0          |   0.0 |  0.00
Modify  | 0          | 0          | 0          |   0.0 |  0.00
Other   |            | 9.16e-07   |            |       |100.00

Nlocal:              4 ave           4 max           4 min
Histogram: 1 0 0 0 0 0 0 0 0 0
Nghost:            662 ave         662 max         662 min
Histogram: 1 0 0 0 0 0 0 0 0 0
Neighs:            280 ave         280 max         280 min
Histogram: 1 0 0 0 0 0 0 0 0 0

Total # of neighbors = 280
Ave neighs/atom = 70
Neighbor list builds = 0
Dangerous builds = 0
set atom * x 0.0 y 0.0 z 0.0
Setting atom values ...
  4 settings made for x
  4 settings made for y
  4 settings made for z
change_box all     x final 0 3.890235402573716 y final 0 3.890235402573716 z final 0 3.890235402573716      xy final 0.0 xz final 0.0 yz final 0.0 units box
Changing box ...
  triclinic box = (0 0 0) to (3.8902354 3.851333 3.851333) with tilt (0 0 0)
  triclinic box = (0 0 0) to (3.8902354 3.8902354 3.851333) with tilt (0 0 0)
  triclinic box = (0 0 0) to (3.8902354 3.8902354 3.8902354) with tilt (0 0 0)
  triclinic box = (0 0 0) to (3.8902354 3.8902354 3.8902354) with tilt (0 0 0)
  triclinic box = (0 0 0) to (3.8902354 3.8902354 3.8902354) with tilt (0 0 0)
  triclinic box = (0 0 0) to (3.8902354 3.8902354 3.8902354) with tilt (0 0 0)
echo none
run 0
WARNING: No fixes with time integration, atoms won't move (src/src/verlet.cpp:60)
Per MPI rank memory allocation (min/avg/max) = 3.252 | 3.252 | 3.252 Mbytes
    PotEng          Pxx           E_mol          E_coul    
-15.639982      181.97846      0              0            
Loop time of 1e-06 on 1 procs for 0 steps with 4 atoms

100.0% CPU use with 1 MPI tasks x no OpenMP threads

MPI task timing breakdown:
Section |  min time  |  avg time  |  max time  |%varavg| %total
---------------------------------------------------------------
Pair    | 0          | 0          | 0          |   0.0 |  0.00
Neigh   | 0          | 0          | 0          |   0.0 |  0.00
Comm    | 0          | 0          | 0          |   0.0 |  0.00
Output  | 0          | 0          | 0          |   0.0 |  0.00
Modify  | 0          | 0          | 0          |   0.0 |  0.00
Other   |            | 1e-06      |            |       |100.00

Nlocal:              4 ave           4 max           4 min
Histogram: 1 0 0 0 0 0 0 0 0 0
Nghost:            662 ave         662 max         662 min
Histogram: 1 0 0 0 0 0 0 0 0 0
Neighs:            280 ave         280 max         280 min
Histogram: 1 0 0 0 0 0 0 0 0 0

Total # of neighbors = 280
Ave neighs/atom = 70
Neighbor list builds = 0
Dangerous builds = 0
set atom * x 0.0 y 0.0 z 0.0
Setting atom values ...
  4 settings made for x
  4 settings made for y
  4 settings made for z
change_box all     x final 0 3.929137756599454 y final 0 3.929137756599454 z final 0 3.929137756599454      xy final 0.0 xz final 0.0 yz final 0.0 units box
Changing box ...
  triclinic box = (0 0 0) to (3.9291378 3.8902354 3.8902354) with tilt (0 0 0)
  triclinic box = (0 0 0) to (3.9291378 3.9291378 3.8902354) with tilt (0 0 0)
  triclinic box = (0 0 0) to (3.9291378 3.9291378 3.9291378) with tilt (0 0 0)
  triclinic box = (0 0 0) to (3.9291378 3.9291378 3.9291378) with tilt (0 0 0)
  triclinic box = (0 0 0) to (3.9291378 3.9291378 3.9291378) with tilt (0 0 0)
  triclinic box = (0 0 0) to (3.9291378 3.9291378 3.9291378) with tilt (0 0 0)
echo none
run 0
WARNING: No fixes with time integration, atoms won't move (src/src/verlet.cpp:60)
Per MPI rank memory allocation (min/avg/max) = 3.252 | 3.252 | 3.252 Mbytes
    PotEng          Pxx           E_mol          E_coul    
-15.609315     -53372.207      0              0            
Loop time of 1e-06 on 1 procs for 0 steps with 4 atoms

100.0% CPU use with 1 MPI tasks x no OpenMP threads

MPI task timing breakdown:
Section |  min time  |  avg time  |  max time  |%varavg| %total
---------------------------------------------------------------
Pair    | 0          | 0          | 0          |   0.0 |  0.00
Neigh   | 0          | 0          | 0          |   0.0 |  0.00
Comm    | 0          | 0          | 0          |   0.0 |  0.00
Output  | 0          | 0          | 0          |   0.0 |  0.00
Modify  | 0          | 0          | 0          |   0.0 |  0.00
Other   |            | 1e-06      |            |       |100.00

Nlocal:              4 ave           4 max           4 min
Histogram: 1 0 0 0 0 0 0 0 0 0
Nghost:            662 ave         662 max         662 min
Histogram: 1 0 0 0 0 0 0 0 0 0
Neighs:            280 ave         280 max         280 min
Histogram: 1 0 0 0 0 0 0 0 0 0

Total # of neighbors = 280
Ave neighs/atom = 70
Neighbor list builds = 0
Dangerous builds = 0
set atom * x 0.0 y 0.0 z 0.0
Setting atom values ...
  4 settings made for x
  4 settings made for y
  4 settings made for z
change_box all     x final 0 3.96804011062519 y final 0 3.96804011062519 z final 0 3.96804011062519      xy final 0.0 xz final 0.0 yz final 0.0 units box
Changing box ...
  triclinic box = (0 0 0) to (3.9680401 3.9291378 3.9291378) with tilt (0 0 0)
  triclinic box = (0 0 0) to (3.9680401 3.9680401 3.9291378) with tilt (0 0 0)
  triclinic box = (0 0 0) to (3.9680401 3.9680401 3.9680401) with tilt (0 0 0)
  triclinic box = (0 0 0) to (3.9680401 3.9680401 3.9680401) with tilt (0 0 0)
  triclinic box = (0 0 0) to (3.9680401 3.9680401 3.9680401) with tilt (0 0 0)
  triclinic box = (0 0 0) to (3.9680401 3.9680401 3.9680401) with tilt (0 0 0)
echo none
run 0
WARNING: No fixes with time integration, atoms won't move (src/src/verlet.cpp:60)
Per MPI rank memory allocation (min/avg/max) = 3.252 | 3.252 | 3.252 Mbytes
    PotEng          Pxx           E_mol          E_coul    
-15.522848     -97191.681      0              0            
Loop time of 9.58e-07 on 1 procs for 0 steps with 4 atoms

104.4% CPU use with 1 MPI tasks x no OpenMP threads

MPI task timing breakdown:
Section |  min time  |  avg time  |  max time  |%varavg| %total
---------------------------------------------------------------
Pair    | 0          | 0          | 0          |   0.0 |  0.00
Neigh   | 0          | 0          | 0          |   0.0 |  0.00
Comm    | 0          | 0          | 0          |   0.0 |  0.00
Output  | 0          | 0          | 0          |   0.0 |  0.00
Modify  | 0          | 0          | 0          |   0.0 |  0.00
Other   |            | 9.58e-07   |            |       |100.00

Nlocal:              4 ave           4 max           4 min
Histogram: 1 0 0 0 0 0 0 0 0 0
Nghost:            662 ave         662 max         662 min
Histogram: 1 0 0 0 0 0 0 0 0 0
Neighs:            280 ave         280 max         280 min
Histogram: 1 0 0 0 0 0 0 0 0 0

Total # of neighbors = 280
Ave neighs/atom = 70
Neighbor list builds = 0
Dangerous builds = 0
set atom * x 0.0 y 0.0 z 0.0
Setting atom values ...
  4 settings made for x
  4 settings made for y
  4 settings made for z
change_box all     x final 0 4.006942464650928 y final 0 4.006942464650928 z final 0 4.006942464650928      xy final 0.0 xz final 0.0 yz final 0.0 units box
Changing box ...
  triclinic box = (0 0 0) to (4.0069425 3.9680401 3.9680401) with tilt (0 0 0)
  triclinic box = (0 0 0) to (4.0069425 4.0069425 3.9680401) with tilt (0 0 0)
  triclinic box = (0 0 0) to (4.0069425 4.0069425 4.0069425) with tilt (0 0 0)
  triclinic box = (0 0 0) to (4.0069425 4.0069425 4.0069425) with tilt (0 0 0)
  triclinic box = (0 0 0) to (4.0069425 4.0069425 4.0069425) with tilt (0 0 0)
  triclinic box = (0 0 0) to (4.0069425 4.0069425 4.0069425) with tilt (0 0 0)
echo none
run 0
WARNING: No fixes with time integration, atoms won't move (src/src/verlet.cpp:60)
Per MPI rank memory allocation (min/avg/max) = 3.252 | 3.252 | 3.252 Mbytes
    PotEng          Pxx           E_mol          E_coul    
-15.389076     -132387.89      0              0            
Loop time of 1.125e-06 on 1 procs for 0 steps with 4 atoms

0.0% CPU use with 1 MPI tasks x no OpenMP threads

MPI task timing breakdown:
Section |  min time  |  avg time  |  max time  |%varavg| %total
---------------------------------------------------------------
Pair    | 0          | 0          | 0          |   0.0 |  0.00
Neigh   | 0          | 0          | 0          |   0.0 |  0.00
Comm    | 0          | 0          | 0          |   0.0 |  0.00
Output  | 0          | 0          | 0          |   0.0 |  0.00
Modify  | 0          | 0          | 0          |   0.0 |  0.00
Other   |            | 1.125e-06  |            |       |100.00

Nlocal:              4 ave           4 max           4 min
Histogram: 1 0 0 0 0 0 0 0 0 0
Nghost:            662 ave         662 max         662 min
Histogram: 1 0 0 0 0 0 0 0 0 0
Neighs:            280 ave         280 max         280 min
Histogram: 1 0 0 0 0 0 0 0 0 0

Total # of neighbors = 280
Ave neighs/atom = 70
Neighbor list builds = 0
Dangerous builds = 0
set atom * x 0.0 y 0.0 z 0.0
Setting atom values ...
  4 settings made for x
  4 settings made for y
  4 settings made for z
change_box all     x final 0 4.045844818676665 y final 0 4.045844818676665 z final 0 4.045844818676665      xy final 0.0 xz final 0.0 yz final 0.0 units box
Changing box ...
  triclinic box = (0 0 0) to (4.0458448 4.0069425 4.0069425) with tilt (0 0 0)
  triclinic box = (0 0 0) to (4.0458448 4.0458448 4.0069425) with tilt (0 0 0)
  triclinic box = (0 0 0) to (4.0458448 4.0458448 4.0458448) with tilt (0 0 0)
  triclinic box = (0 0 0) to (4.0458448 4.0458448 4.0458448) with tilt (0 0 0)
  triclinic box = (0 0 0) to (4.0458448 4.0458448 4.0458448) with tilt (0 0 0)
  triclinic box = (0 0 0) to (4.0458448 4.0458448 4.0458448) with tilt (0 0 0)
echo none
run 0
WARNING: No fixes with time integration, atoms won't move (src/src/verlet.cpp:60)
Per MPI rank memory allocation (min/avg/max) = 3.252 | 3.252 | 3.252 Mbytes
    PotEng          Pxx           E_mol          E_coul    
-15.21575      -159756.48      0              0            
Loop time of 1.208e-06 on 1 procs for 0 steps with 4 atoms

0.0% CPU use with 1 MPI tasks x no OpenMP threads

MPI task timing breakdown:
Section |  min time  |  avg time  |  max time  |%varavg| %total
---------------------------------------------------------------
Pair    | 0          | 0          | 0          |   0.0 |  0.00
Neigh   | 0          | 0          | 0          |   0.0 |  0.00
Comm    | 0          | 0          | 0          |   0.0 |  0.00
Output  | 0          | 0          | 0          |   0.0 |  0.00
Modify  | 0          | 0          | 0          |   0.0 |  0.00
Other   |            | 1.208e-06  |            |       |100.00

Nlocal:              4 ave           4 max           4 min
Histogram: 1 0 0 0 0 0 0 0 0 0
Nghost:            662 ave         662 max         662 min
Histogram: 1 0 0 0 0 0 0 0 0 0
Neighs:            280 ave         280 max         280 min
Histogram: 1 0 0 0 0 0 0 0 0 0

Total # of neighbors = 280
Ave neighs/atom = 70
Neighbor list builds = 0
Dangerous builds = 0
set atom * x 0.0 y 0.0 z 0.0
Setting atom values ...
  4 settings made for x
  4 settings made for y
  4 settings made for z
change_box all     x final 0 4.084747172702403 y final 0 4.084747172702403 z final 0 4.084747172702403      xy final 0.0 xz final 0.0 yz final 0.0 units box
Changing box ...
  triclinic box = (0 0 0) to (4.0847472 4.0458448 4.0458448) with tilt (0 0 0)
  triclinic box = (0 0 0) to (4.0847472 4.0847472 4.0458448) with tilt (0 0 0)
  triclinic box = (0 0 0) to (4.0847472 4.0847472 4.0847472) with tilt (0 0 0)
  triclinic box = (0 0 0) to (4.0847472 4.0847472 4.0847472) with tilt (0 0 0)
  triclinic box = (0 0 0) to (4.0847472 4.0847472 4.0847472) with tilt (0 0 0)
  triclinic box = (0 0 0) to (4.0847472 4.0847472 4.0847472) with tilt (0 0 0)
echo none
run 0
WARNING: No fixes with time integration, atoms won't move (src/src/verlet.cpp:60)
Per MPI rank memory allocation (min/avg/max) = 3.229 | 3.229 | 3.229 Mbytes
    PotEng          Pxx           E_mol          E_coul    
-15.010359     -180483.7       0              0            
Loop time of 8.75e-07 on 1 procs for 0 steps with 4 atoms

0.0% CPU use with 1 MPI tasks x no OpenMP threads

MPI task timing breakdown:
Section |  min time  |  avg time  |  max time  |%varavg| %total
---------------------------------------------------------------
Pair    | 0          | 0          | 0          |   0.0 |  0.00
Neigh   | 0          | 0          | 0          |   0.0 |  0.00
Comm    | 0          | 0          | 0          |   0.0 |  0.00
Output  | 0          | 0          | 0          |   0.0 |  0.00
Modify  | 0          | 0          | 0          |   0.0 |  0.00
Other   |            | 8.75e-07   |            |       |100.00

Nlocal:              4 ave           4 max           4 min
Histogram: 1 0 0 0 0 0 0 0 0 0
Nghost:            360 ave         360 max         360 min
Histogram: 1 0 0 0 0 0 0 0 0 0
Neighs:            268 ave         268 max         268 min
Histogram: 1 0 0 0 0 0 0 0 0 0

Total # of neighbors = 268
Ave neighs/atom = 67
Neighbor list builds = 0
Dangerous builds = 0
set atom * x 0.0 y 0.0 z 0.0
Setting atom values ...
  4 settings made for x
  4 settings made for y
  4 settings made for z
change_box all     x final 0 4.123649526728139 y final 0 4.123649526728139 z final 0 4.123649526728139      xy final 0.0 xz final 0.0 yz final 0.0 units box
Changing box ...
  triclinic box = (0 0 0) to (4.1236495 4.0847472 4.0847472) with tilt (0 0 0)
  triclinic box = (0 0 0) to (4.1236495 4.1236495 4.0847472) with tilt (0 0 0)
  triclinic box = (0 0 0) to (4.1236495 4.1236495 4.1236495) with tilt (0 0 0)
  triclinic box = (0 0 0) to (4.1236495 4.1236495 4.1236495) with tilt (0 0 0)
  triclinic box = (0 0 0) to (4.1236495 4.1236495 4.1236495) with tilt (0 0 0)
  triclinic box = (0 0 0) to (4.1236495 4.1236495 4.1236495) with tilt (0 0 0)
echo none
run 0
WARNING: No fixes with time integration, atoms won't move (src/src/verlet.cpp:60)
Per MPI rank memory allocation (min/avg/max) = 3.229 | 3.229 | 3.229 Mbytes
    PotEng          Pxx           E_mol          E_coul    
-14.778598     -196591.01      0              0            
Loop time of 7.5e-07 on 1 procs for 0 steps with 4 atoms

133.3% CPU use with 1 MPI tasks x no OpenMP threads

MPI task timing breakdown:
Section |  min time  |  avg time  |  max time  |%varavg| %total
---------------------------------------------------------------
Pair    | 0          | 0          | 0          |   0.0 |  0.00
Neigh   | 0          | 0          | 0          |   0.0 |  0.00
Comm    | 0          | 0          | 0          |   0.0 |  0.00
Output  | 0          | 0          | 0          |   0.0 |  0.00
Modify  | 0          | 0          | 0          |   0.0 |  0.00
Other   |            | 7.5e-07    |            |       |100.00

Nlocal:              4 ave           4 max           4 min
Histogram: 1 0 0 0 0 0 0 0 0 0
Nghost:            360 ave         360 max         360 min
Histogram: 1 0 0 0 0 0 0 0 0 0
Neighs:            268 ave         268 max         268 min
Histogram: 1 0 0 0 0 0 0 0 0 0

Total # of neighbors = 268
Ave neighs/atom = 67
Neighbor list builds = 0
Dangerous builds = 0
set atom * x 0.0 y 0.0 z 0.0
Setting atom values ...
  4 settings made for x
  4 settings made for y
  4 settings made for z
change_box all     x final 0 4.162551880753877 y final 0 4.162551880753877 z final 0 4.162551880753877      xy final 0.0 xz final 0.0 yz final 0.0 units box
Changing box ...
  triclinic box = (0 0 0) to (4.1625519 4.1236495 4.1236495) with tilt (0 0 0)
  triclinic box = (0 0 0) to (4.1625519 4.1625519 4.1236495) with tilt (0 0 0)
  triclinic box = (0 0 0) to (4.1625519 4.1625519 4.1625519) with tilt (0 0 0)
  triclinic box = (0 0 0) to (4.1625519 4.1625519 4.1625519) with tilt (0 0 0)
  triclinic box = (0 0 0) to (4.1625519 4.1625519 4.1625519) with tilt (0 0 0)
  triclinic box = (0 0 0) to (4.1625519 4.1625519 4.1625519) with tilt (0 0 0)
echo none
run 0
WARNING: No fixes with time integration, atoms won't move (src/src/verlet.cpp:60)
Per MPI rank memory allocation (min/avg/max) = 3.229 | 3.229 | 3.229 Mbytes
    PotEng          Pxx           E_mol          E_coul    
-14.524464     -209386.19      0              0            
Loop time of 8.75e-07 on 1 procs for 0 steps with 4 atoms

228.6% CPU use with 1 MPI tasks x no OpenMP threads

MPI task timing breakdown:
Section |  min time  |  avg time  |  max time  |%varavg| %total
---------------------------------------------------------------
Pair    | 0          | 0          | 0          |   0.0 |  0.00
Neigh   | 0          | 0          | 0          |   0.0 |  0.00
Comm    | 0          | 0          | 0          |   0.0 |  0.00
Output  | 0          | 0          | 0          |   0.0 |  0.00
Modify  | 0          | 0          | 0          |   0.0 |  0.00
Other   |            | 8.75e-07   |            |       |100.00

Nlocal:              4 ave           4 max           4 min
Histogram: 1 0 0 0 0 0 0 0 0 0
Nghost:            360 ave         360 max         360 min
Histogram: 1 0 0 0 0 0 0 0 0 0
Neighs:            268 ave         268 max         268 min
Histogram: 1 0 0 0 0 0 0 0 0 0

Total # of neighbors = 268
Ave neighs/atom = 67
Neighbor list builds = 0
Dangerous builds = 0
set atom * x 0.0 y 0.0 z 0.0
Setting atom values ...
  4 settings made for x
  4 settings made for y
  4 settings made for z
change_box all     x final 0 4.2014542347796136 y final 0 4.2014542347796136 z final 0 4.2014542347796136      xy final 0.0 xz final 0.0 yz final 0.0 units box
Changing box ...
  triclinic box = (0 0 0) to (4.2014542 4.1625519 4.1625519) with tilt (0 0 0)
  triclinic box = (0 0 0) to (4.2014542 4.2014542 4.1625519) with tilt (0 0 0)
  triclinic box = (0 0 0) to (4.2014542 4.2014542 4.2014542) with tilt (0 0 0)
  triclinic box = (0 0 0) to (4.2014542 4.2014542 4.2014542) with tilt (0 0 0)
  triclinic box = (0 0 0) to (4.2014542 4.2014542 4.2014542) with tilt (0 0 0)
  triclinic box = (0 0 0) to (4.2014542 4.2014542 4.2014542) with tilt (0 0 0)
echo none
run 0
WARNING: No fixes with time integration, atoms won't move (src/src/verlet.cpp:60)
Per MPI rank memory allocation (min/avg/max) = 3.229 | 3.229 | 3.229 Mbytes
    PotEng          Pxx           E_mol          E_coul    
-14.250925     -219626.73      0              0            
Loop time of 7.09e-07 on 1 procs for 0 steps with 4 atoms

141.0% CPU use with 1 MPI tasks x no OpenMP threads

MPI task timing breakdown:
Section |  min time  |  avg time  |  max time  |%varavg| %total
---------------------------------------------------------------
Pair    | 0          | 0          | 0          |   0.0 |  0.00
Neigh   | 0          | 0          | 0          |   0.0 |  0.00
Comm    | 0          | 0          | 0          |   0.0 |  0.00
Output  | 0          | 0          | 0          |   0.0 |  0.00
Modify  | 0          | 0          | 0          |   0.0 |  0.00
Other   |            | 7.09e-07   |            |       |100.00

Nlocal:              4 ave           4 max           4 min
Histogram: 1 0 0 0 0 0 0 0 0 0
Nghost:            360 ave         360 max         360 min
Histogram: 1 0 0 0 0 0 0 0 0 0
Neighs:            268 ave         268 max         268 min
Histogram: 1 0 0 0 0 0 0 0 0 0

Total # of neighbors = 268
Ave neighs/atom = 67
Neighbor list builds = 0
Dangerous builds = 0
set atom * x 0.0 y 0.0 z 0.0
Setting atom values ...
  4 settings made for x
  4 settings made for y
  4 settings made for z
change_box all     x final 0 4.240356588805351 y final 0 4.240356588805351 z final 0 4.240356588805351      xy final 0.0 xz final 0.0 yz final 0.0 units box
Changing box ...
  triclinic box = (0 0 0) to (4.2403566 4.2014542 4.2014542) with tilt (0 0 0)
  triclinic box = (0 0 0) to (4.2403566 4.2403566 4.2014542) with tilt (0 0 0)
  triclinic box = (0 0 0) to (4.2403566 4.2403566 4.2403566) with tilt (0 0 0)
  triclinic box = (0 0 0) to (4.2403566 4.2403566 4.2403566) with tilt (0 0 0)
  triclinic box = (0 0 0) to (4.2403566 4.2403566 4.2403566) with tilt (0 0 0)
  triclinic box = (0 0 0) to (4.2403566 4.2403566 4.2403566) with tilt (0 0 0)
echo none
run 0
WARNING: No fixes with time integration, atoms won't move (src/src/verlet.cpp:60)
Per MPI rank memory allocation (min/avg/max) = 3.229 | 3.229 | 3.229 Mbytes
    PotEng          Pxx           E_mol          E_coul    
-13.960407     -227730.92      0              0            
Loop time of 8.33e-07 on 1 procs for 0 steps with 4 atoms

0.0% CPU use with 1 MPI tasks x no OpenMP threads

MPI task timing breakdown:
Section |  min time  |  avg time  |  max time  |%varavg| %total
---------------------------------------------------------------
Pair    | 0          | 0          | 0          |   0.0 |  0.00
Neigh   | 0          | 0          | 0          |   0.0 |  0.00
Comm    | 0          | 0          | 0          |   0.0 |  0.00
Output  | 0          | 0          | 0          |   0.0 |  0.00
Modify  | 0          | 0          | 0          |   0.0 |  0.00
Other   |            | 8.33e-07   |            |       |100.00

Nlocal:              4 ave           4 max           4 min
Histogram: 1 0 0 0 0 0 0 0 0 0
Nghost:            360 ave         360 max         360 min
Histogram: 1 0 0 0 0 0 0 0 0 0
Neighs:            268 ave         268 max         268 min
Histogram: 1 0 0 0 0 0 0 0 0 0

Total # of neighbors = 268
Ave neighs/atom = 67
Neighbor list builds = 0
Dangerous builds = 0
set atom * x 0.0 y 0.0 z 0.0
Setting atom values ...
  4 settings made for x
  4 settings made for y
  4 settings made for z
change_box all     x final 0 4.279258942831087 y final 0 4.279258942831087 z final 0 4.279258942831087      xy final 0.0 xz final 0.0 yz final 0.0 units box
Changing box ...
  triclinic box = (0 0 0) to (4.2792589 4.2403566 4.2403566) with tilt (0 0 0)
  triclinic box = (0 0 0) to (4.2792589 4.2792589 4.2403566) with tilt (0 0 0)
  triclinic box = (0 0 0) to (4.2792589 4.2792589 4.2792589) with tilt (0 0 0)
  triclinic box = (0 0 0) to (4.2792589 4.2792589 4.2792589) with tilt (0 0 0)
  triclinic box = (0 0 0) to (4.2792589 4.2792589 4.2792589) with tilt (0 0 0)
  triclinic box = (0 0 0) to (4.2792589 4.2792589 4.2792589) with tilt (0 0 0)
echo none
run 0
WARNING: No fixes with time integration, atoms won't move (src/src/verlet.cpp:60)
Per MPI rank memory allocation (min/avg/max) = 3.229 | 3.229 | 3.229 Mbytes
    PotEng          Pxx           E_mol          E_coul    
-13.655072     -233946.09      0              0            
Loop time of 7.5e-07 on 1 procs for 0 steps with 4 atoms

133.3% CPU use with 1 MPI tasks x no OpenMP threads

MPI task timing breakdown:
Section |  min time  |  avg time  |  max time  |%varavg| %total
---------------------------------------------------------------
Pair    | 0          | 0          | 0          |   0.0 |  0.00
Neigh   | 0          | 0          | 0          |   0.0 |  0.00
Comm    | 0          | 0          | 0          |   0.0 |  0.00
Output  | 0          | 0          | 0          |   0.0 |  0.00
Modify  | 0          | 0          | 0          |   0.0 |  0.00
Other   |            | 7.5e-07    |            |       |100.00

Nlocal:              4 ave           4 max           4 min
Histogram: 1 0 0 0 0 0 0 0 0 0
Nghost:            360 ave         360 max         360 min
Histogram: 1 0 0 0 0 0 0 0 0 0
Neighs:            268 ave         268 max         268 min
Histogram: 1 0 0 0 0 0 0 0 0 0

Total # of neighbors = 268
Ave neighs/atom = 67
Neighbor list builds = 0
Dangerous builds = 0
set atom * x 0.0 y 0.0 z 0.0
Setting atom values ...
  4 settings made for x
  4 settings made for y
  4 settings made for z
change_box all     x final 0 11.670706207721148 y final 0 11.670706207721148 z final 0 11.670706207721148      xy final 0.0 xz final 0.0 yz final 0.0 units box
Changing box ...
  triclinic box = (0 0 0) to (11.670706 4.2792589 4.2792589) with tilt (0 0 0)
  triclinic box = (0 0 0) to (11.670706 11.670706 4.2792589) with tilt (0 0 0)
  triclinic box = (0 0 0) to (11.670706 11.670706 11.670706) with tilt (0 0 0)
  triclinic box = (0 0 0) to (11.670706 11.670706 11.670706) with tilt (0 0 0)
  triclinic box = (0 0 0) to (11.670706 11.670706 11.670706) with tilt (0 0 0)
  triclinic box = (0 0 0) to (11.670706 11.670706 11.670706) with tilt (0 0 0)
echo none
Created 104 atoms
  using lattice units in triclinic box = (0 0 0) to (11.670706 11.670706 11.670706) with tilt (0 0 0)
  create_atoms CPU = 0.000 seconds
Setting atom values ...
  1 settings made for type
Setting atom values ...
  1 settings made for type
Setting atom values ...
  1 settings made for type
Setting atom values ...
  1 settings made for type
Setting atom values ...
  1 settings made for type
Setting atom values ...
  1 settings made for type
Setting atom values ...
  1 settings made for type
Setting atom values ...
  1 settings made for type
Setting atom values ...
  1 settings made for type
Setting atom values ...
  1 settings made for type
Setting atom values ...
  1 settings made for type
Setting atom values ...
  1 settings made for type
Setting atom values ...
  1 settings made for type
Setting atom values ...
  1 settings made for type
Setting atom values ...
  1 settings made for type
Setting atom values ...
  1 settings made for type
Setting atom values ...
  1 settings made for type
Setting atom values ...
  1 settings made for type
Setting atom values ...
  1 settings made for type
Setting atom values ...
  1 settings made for type
Setting atom values ...
  1 settings made for type
Setting atom values ...
  1 settings made for type
Setting atom values ...
  1 settings made for type
Setting atom values ...
  1 settings made for type
Setting atom values ...
  1 settings made for type
Setting atom values ...
  1 settings made for type
Setting atom values ...
  1 settings made for type
Setting atom values ...
  1 settings made for type
Setting atom values ...
  1 settings made for type
Setting atom values ...
  1 settings made for type
Setting atom values ...
  1 settings made for type
Setting atom values ...
  1 settings made for type
Setting atom values ...
  1 settings made for type
Setting atom values ...
  1 settings made for type
Setting atom values ...
  1 settings made for type
Setting atom values ...
  1 settings made for type
Setting atom values ...
  1 settings made for type
Setting atom values ...
  1 settings made for type
Setting atom values ...
  1 settings made for type
Setting atom values ...
  1 settings made for type
Setting atom values ...
  1 settings made for type
Setting atom values ...
  1 settings made for type
Setting atom values ...
  1 settings made for type
Setting atom values ...
  1 settings made for type
Setting atom values ...
  1 settings made for type
Setting atom values ...
  1 settings made for type
Setting atom values ...
  1 settings made for type
Setting atom values ...
  1 settings made for type
Setting atom values ...
  1 settings made for type
Setting atom values ...
  1 settings made for type
Setting atom values ...
  1 settings made for type
Setting atom values ...
  1 settings made for type
Setting atom values ...
  1 settings made for type
Setting atom values ...
  1 settings made for type
Setting atom values ...
  1 settings made for type
Setting atom values ...
  1 settings made for type
Setting atom values ...
  1 settings made for type
Setting atom values ...
  1 settings made for type
Setting atom values ...
  1 settings made for type
Setting atom values ...
  1 settings made for type
Setting atom values ...
  1 settings made for type
Setting atom values ...
  1 settings made for type
Setting atom values ...
  1 settings made for type
Setting atom values ...
  1 settings made for type
Setting atom values ...
  1 settings made for type
Setting atom values ...
  1 settings made for type
Setting atom values ...
  1 settings made for type
Setting atom values ...
  1 settings made for type
Setting atom values ...
  1 settings made for type
Setting atom values ...
  1 settings made for type
Setting atom values ...
  1 settings made for type
Setting atom values ...
  1 settings made for type
Setting atom values ...
  1 settings made for type
Setting atom values ...
  1 settings made for type
Setting atom values ...
  1 settings made for type
Setting atom values ...
  1 settings made for type
Setting atom values ...
  1 settings made for type
Setting atom values ...
  1 settings made for type
Setting atom values ...
  1 settings made for type
Setting atom values ...
  1 settings made for type
Setting atom values ...
  1 settings made for type
Setting atom values ...
  1 settings made for type
Setting atom values ...
  1 settings made for type
Setting atom values ...
  1 settings made for type
Setting atom values ...
  1 settings made for type
Setting atom values ...
  1 settings made for type
Setting atom values ...
  1 settings made for type
Setting atom values ...
  1 settings made for type
Setting atom values ...
  1 settings made for type
Setting atom values ...
  1 settings made for type
Setting atom values ...
  1 settings made for type
Setting atom values ...
  1 settings made for type
Setting atom values ...
  1 settings made for type
Setting atom values ...
  1 settings made for type
Setting atom values ...
  1 settings made for type
Setting atom values ...
  1 settings made for type
Setting atom values ...
  1 settings made for type
Setting atom values ...
  1 settings made for type
Setting atom values ...
  1 settings made for type
Setting atom values ...
  1 settings made for type
Setting atom values ...
  1 settings made for type
Setting atom values ...
  1 settings made for type
Setting atom values ...
  1 settings made for type
Setting atom values ...
  1 settings made for type
run 0
WARNING: No fixes with time integration, atoms won't move (src/src/verlet.cpp:60)
Per MPI rank memory allocation (min/avg/max) = 3.274 | 3.274 | 3.274 Mbytes
    PotEng          Pxx           E_mol          E_coul    
-422.27952      181.97846      0              0            
Loop time of 1e-06 on 1 procs for 0 steps with 108 atoms

100.0% CPU use with 1 MPI tasks x no OpenMP threads

MPI task timing breakdown:
Section |  min time  |  avg time  |  max time  |%varavg| %total
---------------------------------------------------------------
Pair    | 0          | 0          | 0          |   0.0 |  0.00
Neigh   | 0          | 0          | 0          |   0.0 |  0.00
Comm    | 0          | 0          | 0          |   0.0 |  0.00
Output  | 0          | 0          | 0          |   0.0 |  0.00
Modify  | 0          | 0          | 0          |   0.0 |  0.00
Other   |            | 1e-06      |            |       |100.00

Nlocal:            108 ave         108 max         108 min
Histogram: 1 0 0 0 0 0 0 0 0 0
Nghost:           1580 ave        1580 max        1580 min
Histogram: 1 0 0 0 0 0 0 0 0 0
Neighs:           7560 ave        7560 max        7560 min
Histogram: 1 0 0 0 0 0 0 0 0 0

Total # of neighbors = 7560
Ave neighs/atom = 70
Neighbor list builds = 0
Dangerous builds = 0
set atom * x 0.0 y 0.0 z 0.0
Setting atom values ...
  108 settings made for x
  108 settings made for y
  108 settings made for z
change_box all     x final 0 11.437292083566724 y final 0 11.670706207721148 z final 0 11.670706207721148      xy final 0.0 xz final 0.0 yz final 0.0 units box
Changing box ...
  triclinic box = (0 0 0) to (11.437292 11.670706 11.670706) with tilt (0 0 0)
  triclinic box = (0 0 0) to (11.437292 11.670706 11.670706) with tilt (0 0 0)
  triclinic box = (0 0 0) to (11.437292 11.670706 11.670706) with tilt (0 0 0)
  triclinic box = (0 0 0) to (11.437292 11.670706 11.670706) with tilt (0 0 0)
  triclinic box = (0 0 0) to (11.437292 11.670706 11.670706) with tilt (0 0 0)
  triclinic box = (0 0 0) to (11.437292 11.670706 11.670706) with tilt (0 0 0)
echo none
run 0
WARNING: No fixes with time integration, atoms won't move (src/src/verlet.cpp:60)
Per MPI rank memory allocation (min/avg/max) = 3.274 | 3.274 | 3.274 Mbytes
    PotEng          Pxx           E_mol          E_coul    
-421.7839       51079.61       0              0            
Loop time of 7.91e-07 on 1 procs for 0 steps with 108 atoms

0.0% CPU use with 1 MPI tasks x no OpenMP threads

MPI task timing breakdown:
Section |  min time  |  avg time  |  max time  |%varavg| %total
---------------------------------------------------------------
Pair    | 0          | 0          | 0          |   0.0 |  0.00
Neigh   | 0          | 0          | 0          |   0.0 |  0.00
Comm    | 0          | 0          | 0          |   0.0 |  0.00
Output  | 0          | 0          | 0          |   0.0 |  0.00
Modify  | 0          | 0          | 0          |   0.0 |  0.00
Other   |            | 7.91e-07   |            |       |100.00

Nlocal:            108 ave         108 max         108 min
Histogram: 1 0 0 0 0 0 0 0 0 0
Nghost:           1580 ave        1580 max        1580 min
Histogram: 1 0 0 0 0 0 0 0 0 0
Neighs:           7992 ave        7992 max        7992 min
Histogram: 1 0 0 0 0 0 0 0 0 0

Total # of neighbors = 7992
Ave neighs/atom = 74
Neighbor list builds = 0
Dangerous builds = 0
set atom * x 0.0 y 0.0 z 0.0
Setting atom values ...
  108 settings made for x
  108 settings made for y
  108 settings made for z
change_box all     x final 0 11.553999145643937 y final 0 11.670706207721148 z final 0 11.670706207721148      xy final 0.0 xz final 0.0 yz final 0.0 units box
Changing box ...
  triclinic box = (0 0 0) to (11.553999 11.670706 11.670706) with tilt (0 0 0)
  triclinic box = (0 0 0) to (11.553999 11.670706 11.670706) with tilt (0 0 0)
  triclinic box = (0 0 0) to (11.553999 11.670706 11.670706) with tilt (0 0 0)
  triclinic box = (0 0 0) to (11.553999 11.670706 11.670706) with tilt (0 0 0)
  triclinic box = (0 0 0) to (11.553999 11.670706 11.670706) with tilt (0 0 0)
  triclinic box = (0 0 0) to (11.553999 11.670706 11.670706) with tilt (0 0 0)
echo none
run 0
WARNING: No fixes with time integration, atoms won't move (src/src/verlet.cpp:60)
Per MPI rank memory allocation (min/avg/max) = 3.274 | 3.274 | 3.274 Mbytes
    PotEng          Pxx           E_mol          E_coul    
-422.15809      24648.755      0              0            
Loop time of 8.34e-07 on 1 procs for 0 steps with 108 atoms

0.0% CPU use with 1 MPI tasks x no OpenMP threads

MPI task timing breakdown:
Section |  min time  |  avg time  |  max time  |%varavg| %total
---------------------------------------------------------------
Pair    | 0          | 0          | 0          |   0.0 |  0.00
Neigh   | 0          | 0          | 0          |   0.0 |  0.00
Comm    | 0          | 0          | 0          |   0.0 |  0.00
Output  | 0          | 0          | 0          |   0.0 |  0.00
Modify  | 0          | 0          | 0          |   0.0 |  0.00
Other   |            | 8.34e-07   |            |       |100.00

Nlocal:            108 ave         108 max         108 min
Histogram: 1 0 0 0 0 0 0 0 0 0
Nghost:           1580 ave        1580 max        1580 min
Histogram: 1 0 0 0 0 0 0 0 0 0
Neighs:           7560 ave        7560 max        7560 min
Histogram: 1 0 0 0 0 0 0 0 0 0

Total # of neighbors = 7560
Ave neighs/atom = 70
Neighbor list builds = 0
Dangerous builds = 0
set atom * x 0.0 y 0.0 z 0.0
Setting atom values ...
  108 settings made for x
  108 settings made for y
  108 settings made for z
change_box all     x final 0 11.670706207721148 y final 0 11.670706207721148 z final 0 11.670706207721148      xy final 0.0 xz final 0.0 yz final 0.0 units box
Changing box ...
  triclinic box = (0 0 0) to (11.670706 11.670706 11.670706) with tilt (0 0 0)
  triclinic box = (0 0 0) to (11.670706 11.670706 11.670706) with tilt (0 0 0)
  triclinic box = (0 0 0) to (11.670706 11.670706 11.670706) with tilt (0 0 0)
  triclinic box = (0 0 0) to (11.670706 11.670706 11.670706) with tilt (0 0 0)
  triclinic box = (0 0 0) to (11.670706 11.670706 11.670706) with tilt (0 0 0)
  triclinic box = (0 0 0) to (11.670706 11.670706 11.670706) with tilt (0 0 0)
echo none
run 0
WARNING: No fixes with time integration, atoms won't move (src/src/verlet.cpp:60)
Per MPI rank memory allocation (min/avg/max) = 3.274 | 3.274 | 3.274 Mbytes
    PotEng          Pxx           E_mol          E_coul    
-422.27952      181.97846      0              0            
Loop time of 7.09e-07 on 1 procs for 0 steps with 108 atoms

141.0% CPU use with 1 MPI tasks x no OpenMP threads

MPI task timing breakdown:
Section |  min time  |  avg time  |  max time  |%varavg| %total
---------------------------------------------------------------
Pair    | 0          | 0          | 0          |   0.0 |  0.00
Neigh   | 0          | 0          | 0          |   0.0 |  0.00
Comm    | 0          | 0          | 0          |   0.0 |  0.00
Output  | 0          | 0          | 0          |   0.0 |  0.00
Modify  | 0          | 0          | 0          |   0.0 |  0.00
Other   |            | 7.09e-07   |            |       |100.00

Nlocal:            108 ave         108 max         108 min
Histogram: 1 0 0 0 0 0 0 0 0 0
Nghost:           1580 ave        1580 max        1580 min
Histogram: 1 0 0 0 0 0 0 0 0 0
Neighs:           7560 ave        7560 max        7560 min
Histogram: 1 0 0 0 0 0 0 0 0 0

Total # of neighbors = 7560
Ave neighs/atom = 70
Neighbor list builds = 0
Dangerous builds = 0
set atom * x 0.0 y 0.0 z 0.0
Setting atom values ...
  108 settings made for x
  108 settings made for y
  108 settings made for z
change_box all     x final 0 11.787413269798359 y final 0 11.670706207721148 z final 0 11.670706207721148      xy final 0.0 xz final 0.0 yz final 0.0 units box
Changing box ...
  triclinic box = (0 0 0) to (11.787413 11.670706 11.670706) with tilt (0 0 0)
  triclinic box = (0 0 0) to (11.787413 11.670706 11.670706) with tilt (0 0 0)
  triclinic box = (0 0 0) to (11.787413 11.670706 11.670706) with tilt (0 0 0)
  triclinic box = (0 0 0) to (11.787413 11.670706 11.670706) with tilt (0 0 0)
  triclinic box = (0 0 0) to (11.787413 11.670706 11.670706) with tilt (0 0 0)
  triclinic box = (0 0 0) to (11.787413 11.670706 11.670706) with tilt (0 0 0)
echo none
run 0
WARNING: No fixes with time integration, atoms won't move (src/src/verlet.cpp:60)
Per MPI rank memory allocation (min/avg/max) = 3.274 | 3.274 | 3.274 Mbytes
    PotEng          Pxx           E_mol          E_coul    
-422.16847     -22070.852      0              0            
Loop time of 8.75e-07 on 1 procs for 0 steps with 108 atoms

114.3% CPU use with 1 MPI tasks x no OpenMP threads

MPI task timing breakdown:
Section |  min time  |  avg time  |  max time  |%varavg| %total
---------------------------------------------------------------
Pair    | 0          | 0          | 0          |   0.0 |  0.00
Neigh   | 0          | 0          | 0          |   0.0 |  0.00
Comm    | 0          | 0          | 0          |   0.0 |  0.00
Output  | 0          | 0          | 0          |   0.0 |  0.00
Modify  | 0          | 0          | 0          |   0.0 |  0.00
Other   |            | 8.75e-07   |            |       |100.00

Nlocal:            108 ave         108 max         108 min
Histogram: 1 0 0 0 0 0 0 0 0 0
Nghost:           1580 ave        1580 max        1580 min
Histogram: 1 0 0 0 0 0 0 0 0 0
Neighs:           7560 ave        7560 max        7560 min
Histogram: 1 0 0 0 0 0 0 0 0 0

Total # of neighbors = 7560
Ave neighs/atom = 70
Neighbor list builds = 0
Dangerous builds = 0
set atom * x 0.0 y 0.0 z 0.0
Setting atom values ...
  108 settings made for x
  108 settings made for y
  108 settings made for z
change_box all     x final 0 11.904120331875571 y final 0 11.670706207721148 z final 0 11.670706207721148      xy final 0.0 xz final 0.0 yz final 0.0 units box
Changing box ...
  triclinic box = (0 0 0) to (11.90412 11.670706 11.670706) with tilt (0 0 0)
  triclinic box = (0 0 0) to (11.90412 11.670706 11.670706) with tilt (0 0 0)
  triclinic box = (0 0 0) to (11.90412 11.670706 11.670706) with tilt (0 0 0)
  triclinic box = (0 0 0) to (11.90412 11.670706 11.670706) with tilt (0 0 0)
  triclinic box = (0 0 0) to (11.90412 11.670706 11.670706) with tilt (0 0 0)
  triclinic box = (0 0 0) to (11.90412 11.670706 11.670706) with tilt (0 0 0)
echo none
run 0
WARNING: No fixes with time integration, atoms won't move (src/src/verlet.cpp:60)
Per MPI rank memory allocation (min/avg/max) = 3.274 | 3.274 | 3.274 Mbytes
    PotEng          Pxx           E_mol          E_coul    
-421.84843     -42070.612      0              0            
Loop time of 7.91e-07 on 1 procs for 0 steps with 108 atoms

126.4% CPU use with 1 MPI tasks x no OpenMP threads

MPI task timing breakdown:
Section |  min time  |  avg time  |  max time  |%varavg| %total
---------------------------------------------------------------
Pair    | 0          | 0          | 0          |   0.0 |  0.00
Neigh   | 0          | 0          | 0          |   0.0 |  0.00
Comm    | 0          | 0          | 0          |   0.0 |  0.00
Output  | 0          | 0          | 0          |   0.0 |  0.00
Modify  | 0          | 0          | 0          |   0.0 |  0.00
Other   |            | 7.91e-07   |            |       |100.00

Nlocal:            108 ave         108 max         108 min
Histogram: 1 0 0 0 0 0 0 0 0 0
Nghost:           1580 ave        1580 max        1580 min
Histogram: 1 0 0 0 0 0 0 0 0 0
Neighs:           7560 ave        7560 max        7560 min
Histogram: 1 0 0 0 0 0 0 0 0 0

Total # of neighbors = 7560
Ave neighs/atom = 70
Neighbor list builds = 0
Dangerous builds = 0
set atom * x 0.0 y 0.0 z 0.0
Setting atom values ...
  108 settings made for x
  108 settings made for y
  108 settings made for z
change_box all     x final 0 11.670706207721148 y final 0 11.67072954911022 z final 0 11.670682866378757      xy final 0.0 xz final 0.0 yz final 0.023341365732757514 units box
Changing box ...
  triclinic box = (0 0 0) to (11.670706 11.670706 11.670706) with tilt (0 0 0)
  triclinic box = (0 0 0) to (11.670706 11.67073 11.670706) with tilt (0 0 0)
  triclinic box = (0 0 0) to (11.670706 11.67073 11.670683) with tilt (0 0 0)
  triclinic box = (0 0 0) to (11.670706 11.67073 11.670683) with tilt (0 0 0)
  triclinic box = (0 0 0) to (11.670706 11.67073 11.670683) with tilt (0 0 0)
  triclinic box = (0 0 0) to (11.670706 11.67073 11.670683) with tilt (0 0 0.023341366)
echo none
run 0
WARNING: No fixes with time integration, atoms won't move (src/src/verlet.cpp:60)
Per MPI rank memory allocation (min/avg/max) = 3.274 | 3.274 | 3.274 Mbytes
    PotEng          Pxx           E_mol          E_coul    
-422.27795      184.92063      0              0            
Loop time of 7.09e-07 on 1 procs for 0 steps with 108 atoms

282.1% CPU use with 1 MPI tasks x no OpenMP threads

MPI task timing breakdown:
Section |  min time  |  avg time  |  max time  |%varavg| %total
---------------------------------------------------------------
Pair    | 0          | 0          | 0          |   0.0 |  0.00
Neigh   | 0          | 0          | 0          |   0.0 |  0.00
Comm    | 0          | 0          | 0          |   0.0 |  0.00
Output  | 0          | 0          | 0          |   0.0 |  0.00
Modify  | 0          | 0          | 0          |   0.0 |  0.00
Other   |            | 7.09e-07   |            |       |100.00

Nlocal:            108 ave         108 max         108 min
Histogram: 1 0 0 0 0 0 0 0 0 0
Nghost:           1580 ave        1580 max        1580 min
Histogram: 1 0 0 0 0 0 0 0 0 0
Neighs:           7560 ave        7560 max        7560 min
Histogram: 1 0 0 0 0 0 0 0 0 0

Total # of neighbors = 7560
Ave neighs/atom = 70
Neighbor list builds = 0
Dangerous builds = 0
set atom * x 0.0 y 0.0 z 0.0
Setting atom values ...
  108 settings made for x
  108 settings made for y
  108 settings made for z
change_box all     x final 0 11.670706207721148 y final 0 11.670952748785723 z final 0 11.670459671864586      xy final 0.0 xz final 0.0 yz final 0.07585798786711982 units box
Changing box ...
  triclinic box = (0 0 0) to (11.670706 11.67073 11.670683) with tilt (0 0 0.023341366)
  triclinic box = (0 0 0) to (11.670706 11.670953 11.670683) with tilt (0 0 0.023341366)
  triclinic box = (0 0 0) to (11.670706 11.670953 11.67046) with tilt (0 0 0.023341366)
  triclinic box = (0 0 0) to (11.670706 11.670953 11.67046) with tilt (0 0 0.023341366)
  triclinic box = (0 0 0) to (11.670706 11.670953 11.67046) with tilt (0 0 0.023341366)
  triclinic box = (0 0 0) to (11.670706 11.670953 11.67046) with tilt (0 0 0.075857988)
echo none
run 0
WARNING: No fixes with time integration, atoms won't move (src/src/verlet.cpp:60)
[...]
echo none
run 0
Per MPI rank memory allocation (min/avg/max) = 3.392 | 3.392 | 3.392 Mbytes
    PotEng          Pxx           E_mol          E_coul    
-593.75023     -1389.752       0              0            
Loop time of 1.084e-06 on 1 procs for 0 steps with 160 atoms

276.8% CPU use with 1 MPI tasks x no OpenMP threads

MPI task timing breakdown:
Section |  min time  |  avg time  |  max time  |%varavg| %total
---------------------------------------------------------------
Pair    | 0          | 0          | 0          |   0.0 |  0.00
Neigh   | 0          | 0          | 0          |   0.0 |  0.00
Comm    | 0          | 0          | 0          |   0.0 |  0.00
Output  | 0          | 0          | 0          |   0.0 |  0.00
Modify  | 0          | 0          | 0          |   0.0 |  0.00
Other   |            | 1.084e-06  |            |       |100.00

Nlocal:            160 ave         160 max         160 min
Histogram: 1 0 0 0 0 0 0 0 0 0
Nghost:            864 ave         864 max         864 min
Histogram: 1 0 0 0 0 0 0 0 0 0
Neighs:           9216 ave        9216 max        9216 min
Histogram: 1 0 0 0 0 0 0 0 0 0

Total # of neighbors = 9216
Ave neighs/atom = 57.6
Neighbor list builds = 0
Dangerous builds = 0
set atom * x 0.0 y 0.0 z 0.0
Setting atom values ...
  160 settings made for x
  160 settings made for y
  160 settings made for z
change_box all     x final 0 10.896114582401538 y final 0 13.344960452891437 z final 0 34.74609804713372      xy final -10.896114582401538 xz final 0.0 yz final 0.0 units box
Changing box ...
  triclinic box = (0 0 0) to (10.896115 13.351297 34.762596) with tilt (-10.901288 0 0)
  triclinic box = (0 0 0) to (10.896115 13.34496 34.762596) with tilt (-10.901288 0 0)
  triclinic box = (0 0 0) to (10.896115 13.34496 34.746098) with tilt (-10.901288 0 0)
  triclinic box = (0 0 0) to (10.896115 13.34496 34.746098) with tilt (-10.896115 0 0)
  triclinic box = (0 0 0) to (10.896115 13.34496 34.746098) with tilt (-10.896115 0 0)
  triclinic box = (0 0 0) to (10.896115 13.34496 34.746098) with tilt (-10.896115 0 0)
echo none
run 0
Per MPI rank memory allocation (min/avg/max) = 3.392 | 3.392 | 3.392 Mbytes
    PotEng          Pxx           E_mol          E_coul    
-593.75811     -1221.3904      0              0            
Loop time of 7.5e-07 on 1 procs for 0 steps with 160 atoms

133.3% CPU use with 1 MPI tasks x no OpenMP threads

MPI task timing breakdown:
Section |  min time  |  avg time  |  max time  |%varavg| %total
---------------------------------------------------------------
Pair    | 0          | 0          | 0          |   0.0 |  0.00
Neigh   | 0          | 0          | 0          |   0.0 |  0.00
Comm    | 0          | 0          | 0          |   0.0 |  0.00
Output  | 0          | 0          | 0          |   0.0 |  0.00
Modify  | 0          | 0          | 0          |   0.0 |  0.00
Other   |            | 7.5e-07    |            |       |100.00

Nlocal:            160 ave         160 max         160 min
Histogram: 1 0 0 0 0 0 0 0 0 0
Nghost:            864 ave         864 max         864 min
Histogram: 1 0 0 0 0 0 0 0 0 0
Neighs:           9216 ave        9216 max        9216 min
Histogram: 1 0 0 0 0 0 0 0 0 0

Total # of neighbors = 9216
Ave neighs/atom = 57.6
Neighbor list builds = 0
Dangerous builds = 0
set atom * x 0.0 y 0.0 z 0.0
Setting atom values ...
  160 settings made for x
  160 settings made for y
  160 settings made for z
change_box all     x final 0 10.896114582401538 y final 0 13.344960452891437 z final 0 34.74609804713372      xy final -10.896114582401538 xz final 0.0 yz final 0.0 units box
Changing box ...
  triclinic box = (0 0 0) to (10.896115 13.34496 34.746098) with tilt (-10.896115 0 0)
  triclinic box = (0 0 0) to (10.896115 13.34496 34.746098) with tilt (-10.896115 0 0)
  triclinic box = (0 0 0) to (10.896115 13.34496 34.746098) with tilt (-10.896115 0 0)
  triclinic box = (0 0 0) to (10.896115 13.34496 34.746098) with tilt (-10.896115 0 0)
  triclinic box = (0 0 0) to (10.896115 13.34496 34.746098) with tilt (-10.896115 0 0)
  triclinic box = (0 0 0) to (10.896115 13.34496 34.746098) with tilt (-10.896115 0 0)
echo none
run 0
Per MPI rank memory allocation (min/avg/max) = 3.392 | 3.392 | 3.392 Mbytes
    PotEng          Pxx           E_mol          E_coul    
-593.75811     -1221.3904      0              0            
Loop time of 1.084e-06 on 1 procs for 0 steps with 160 atoms

276.8% CPU use with 1 MPI tasks x no OpenMP threads

MPI task timing breakdown:
Section |  min time  |  avg time  |  max time  |%varavg| %total
---------------------------------------------------------------
Pair    | 0          | 0          | 0          |   0.0 |  0.00
Neigh   | 0          | 0          | 0          |   0.0 |  0.00
Comm    | 0          | 0          | 0          |   0.0 |  0.00
Output  | 0          | 0          | 0          |   0.0 |  0.00
Modify  | 0          | 0          | 0          |   0.0 |  0.00
Other   |            | 1.084e-06  |            |       |100.00

Nlocal:            160 ave         160 max         160 min
Histogram: 1 0 0 0 0 0 0 0 0 0
Nghost:            864 ave         864 max         864 min
Histogram: 1 0 0 0 0 0 0 0 0 0
Neighs:           9216 ave        9216 max        9216 min
Histogram: 1 0 0 0 0 0 0 0 0 0

Total # of neighbors = 9216
Ave neighs/atom = 57.6
Neighbor list builds = 0
Dangerous builds = 0
set atom * x 0.0 y 0.0 z 0.0
Setting atom values ...
  160 settings made for x
  160 settings made for y
  160 settings made for z
change_box all     x final 0 10.894380608800137 y final 0 13.342836777615998 z final 0 34.74056866174502      xy final -10.894380608800137 xz final 0.0 yz final 0.0 units box
Changing box ...
  triclinic box = (0 0 0) to (10.894381 13.34496 34.746098) with tilt (-10.896115 0 0)
  triclinic box = (0 0 0) to (10.894381 13.342837 34.746098) with tilt (-10.896115 0 0)
  triclinic box = (0 0 0) to (10.894381 13.342837 34.740569) with tilt (-10.896115 0 0)
  triclinic box = (0 0 0) to (10.894381 13.342837 34.740569) with tilt (-10.894381 0 0)
  triclinic box = (0 0 0) to (10.894381 13.342837 34.740569) with tilt (-10.894381 0 0)
  triclinic box = (0 0 0) to (10.894381 13.342837 34.740569) with tilt (-10.894381 0 0)
echo none
run 0
Per MPI rank memory allocation (min/avg/max) = 3.392 | 3.392 | 3.392 Mbytes
    PotEng          Pxx           E_mol          E_coul    
-593.76136     -1216.7852      0              0            
Loop time of 8.34e-07 on 1 procs for 0 steps with 160 atoms

359.7% CPU use with 1 MPI tasks x no OpenMP threads

MPI task timing breakdown:
Section |  min time  |  avg time  |  max time  |%varavg| %total
---------------------------------------------------------------
Pair    | 0          | 0          | 0          |   0.0 |  0.00
Neigh   | 0          | 0          | 0          |   0.0 |  0.00
Comm    | 0          | 0          | 0          |   0.0 |  0.00
Output  | 0          | 0          | 0          |   0.0 |  0.00
Modify  | 0          | 0          | 0          |   0.0 |  0.00
Other   |            | 8.34e-07   |            |       |100.00

Nlocal:            160 ave         160 max         160 min
Histogram: 1 0 0 0 0 0 0 0 0 0
Nghost:            864 ave         864 max         864 min
Histogram: 1 0 0 0 0 0 0 0 0 0
Neighs:           9200 ave        9200 max        9200 min
Histogram: 1 0 0 0 0 0 0 0 0 0

Total # of neighbors = 9200
Ave neighs/atom = 57.5
Neighbor list builds = 0
Dangerous builds = 0
set atom * x 0.0 y 0.0 z 0.0
Setting atom values ...
  160 settings made for x
  160 settings made for y
  160 settings made for z
change_box all     x final 0 10.894380608800137 y final 0 13.342836777616 z final 0 34.74056866174502      xy final -10.894380608800137 xz final 0.0 yz final 0.0 units box
Changing box ...
  triclinic box = (0 0 0) to (10.894381 13.342837 34.740569) with tilt (-10.894381 0 0)
  triclinic box = (0 0 0) to (10.894381 13.342837 34.740569) with tilt (-10.894381 0 0)
  triclinic box = (0 0 0) to (10.894381 13.342837 34.740569) with tilt (-10.894381 0 0)
  triclinic box = (0 0 0) to (10.894381 13.342837 34.740569) with tilt (-10.894381 0 0)
  triclinic box = (0 0 0) to (10.894381 13.342837 34.740569) with tilt (-10.894381 0 0)
  triclinic box = (0 0 0) to (10.894381 13.342837 34.740569) with tilt (-10.894381 0 0)
echo none
run 0
Per MPI rank memory allocation (min/avg/max) = 3.392 | 3.392 | 3.392 Mbytes
    PotEng          Pxx           E_mol          E_coul    
-593.76136     -1216.7852      0              0            
Loop time of 9.58e-07 on 1 procs for 0 steps with 160 atoms

313.2% CPU use with 1 MPI tasks x no OpenMP threads

MPI task timing breakdown:
Section |  min time  |  avg time  |  max time  |%varavg| %total
---------------------------------------------------------------
Pair    | 0          | 0          | 0          |   0.0 |  0.00
Neigh   | 0          | 0          | 0          |   0.0 |  0.00
Comm    | 0          | 0          | 0          |   0.0 |  0.00
Output  | 0          | 0          | 0          |   0.0 |  0.00
Modify  | 0          | 0          | 0          |   0.0 |  0.00
Other   |            | 9.58e-07   |            |       |100.00

Nlocal:            160 ave         160 max         160 min
Histogram: 1 0 0 0 0 0 0 0 0 0
Nghost:            864 ave         864 max         864 min
Histogram: 1 0 0 0 0 0 0 0 0 0
Neighs:           9200 ave        9200 max        9200 min
Histogram: 1 0 0 0 0 0 0 0 0 0

Total # of neighbors = 9200
Ave neighs/atom = 57.5
Neighbor list builds = 0
Dangerous builds = 0
set atom * x 0.0 y 0.0 z 0.0
Setting atom values ...
  160 settings made for x
  160 settings made for y
  160 settings made for z
change_box all     x final 0 10.893607052810014 y final 0 13.341889368884365 z final 0 34.73810190608872      xy final -10.893607052810014 xz final 0.0 yz final 0.0 units box
Changing box ...
  triclinic box = (0 0 0) to (10.893607 13.342837 34.740569) with tilt (-10.894381 0 0)
  triclinic box = (0 0 0) to (10.893607 13.341889 34.740569) with tilt (-10.894381 0 0)
  triclinic box = (0 0 0) to (10.893607 13.341889 34.738102) with tilt (-10.894381 0 0)
  triclinic box = (0 0 0) to (10.893607 13.341889 34.738102) with tilt (-10.893607 0 0)
  triclinic box = (0 0 0) to (10.893607 13.341889 34.738102) with tilt (-10.893607 0 0)
  triclinic box = (0 0 0) to (10.893607 13.341889 34.738102) with tilt (-10.893607 0 0)
echo none
run 0
Per MPI rank memory allocation (min/avg/max) = 3.392 | 3.392 | 3.392 Mbytes
    PotEng          Pxx           E_mol          E_coul    
-593.76325     -1237.4438      0              0            
Loop time of 8.33e-07 on 1 procs for 0 steps with 160 atoms

360.1% CPU use with 1 MPI tasks x no OpenMP threads

MPI task timing breakdown:
Section |  min time  |  avg time  |  max time  |%varavg| %total
---------------------------------------------------------------
Pair    | 0          | 0          | 0          |   0.0 |  0.00
Neigh   | 0          | 0          | 0          |   0.0 |  0.00
Comm    | 0          | 0          | 0          |   0.0 |  0.00
Output  | 0          | 0          | 0          |   0.0 |  0.00
Modify  | 0          | 0          | 0          |   0.0 |  0.00
Other   |            | 8.33e-07   |            |       |100.00

Nlocal:            160 ave         160 max         160 min
Histogram: 1 0 0 0 0 0 0 0 0 0
Nghost:            864 ave         864 max         864 min
Histogram: 1 0 0 0 0 0 0 0 0 0
Neighs:           9200 ave        9200 max        9200 min
Histogram: 1 0 0 0 0 0 0 0 0 0

Total # of neighbors = 9200
Ave neighs/atom = 57.5
Neighbor list builds = 0
Dangerous builds = 0
set atom * x 0.0 y 0.0 z 0.0
Setting atom values ...
  160 settings made for x
  160 settings made for y
  160 settings made for z
change_box all     x final 0 10.893607052810014 y final 0 13.341889368884365 z final 0 34.73810190608872      xy final -10.893607052810014 xz final 0.0 yz final 0.0 units box
Changing box ...
  triclinic box = (0 0 0) to (10.893607 13.341889 34.738102) with tilt (-10.893607 0 0)
  triclinic box = (0 0 0) to (10.893607 13.341889 34.738102) with tilt (-10.893607 0 0)
  triclinic box = (0 0 0) to (10.893607 13.341889 34.738102) with tilt (-10.893607 0 0)
  triclinic box = (0 0 0) to (10.893607 13.341889 34.738102) with tilt (-10.893607 0 0)
  triclinic box = (0 0 0) to (10.893607 13.341889 34.738102) with tilt (-10.893607 0 0)
  triclinic box = (0 0 0) to (10.893607 13.341889 34.738102) with tilt (-10.893607 0 0)
echo none
run 0
Per MPI rank memory allocation (min/avg/max) = 3.392 | 3.392 | 3.392 Mbytes
    PotEng          Pxx           E_mol          E_coul    
-593.76325     -1237.4438      0              0            
Loop time of 1.208e-06 on 1 procs for 0 steps with 160 atoms

82.8% CPU use with 1 MPI tasks x no OpenMP threads

MPI task timing breakdown:
Section |  min time  |  avg time  |  max time  |%varavg| %total
---------------------------------------------------------------
Pair    | 0          | 0          | 0          |   0.0 |  0.00
Neigh   | 0          | 0          | 0          |   0.0 |  0.00
Comm    | 0          | 0          | 0          |   0.0 |  0.00
Output  | 0          | 0          | 0          |   0.0 |  0.00
Modify  | 0          | 0          | 0          |   0.0 |  0.00
Other   |            | 1.208e-06  |            |       |100.00

Nlocal:            160 ave         160 max         160 min
Histogram: 1 0 0 0 0 0 0 0 0 0
Nghost:            864 ave         864 max         864 min
Histogram: 1 0 0 0 0 0 0 0 0 0
Neighs:           9200 ave        9200 max        9200 min
Histogram: 1 0 0 0 0 0 0 0 0 0

Total # of neighbors = 9200
Ave neighs/atom = 57.5
Neighbor list builds = 0
Dangerous builds = 0
set atom * x 0.0 y 0.0 z 0.0
Setting atom values ...
  160 settings made for x
  160 settings made for y
  160 settings made for z
change_box all     x final 0 10.892830144154548 y final 0 13.340937853993045 z final 0 34.73562445927845      xy final -10.892830144154548 xz final 0.0 yz final 0.0 units box
Changing box ...
  triclinic box = (0 0 0) to (10.89283 13.341889 34.738102) with tilt (-10.893607 0 0)
  triclinic box = (0 0 0) to (10.89283 13.340938 34.738102) with tilt (-10.893607 0 0)
  triclinic box = (0 0 0) to (10.89283 13.340938 34.735624) with tilt (-10.893607 0 0)
  triclinic box = (0 0 0) to (10.89283 13.340938 34.735624) with tilt (-10.89283 0 0)
  triclinic box = (0 0 0) to (10.89283 13.340938 34.735624) with tilt (-10.89283 0 0)
  triclinic box = (0 0 0) to (10.89283 13.340938 34.735624) with tilt (-10.89283 0 0)
echo none
run 0
Per MPI rank memory allocation (min/avg/max) = 3.392 | 3.392 | 3.392 Mbytes
    PotEng          Pxx           E_mol          E_coul    
-593.76485     -1249.1595      0              0            
Loop time of 9.58e-07 on 1 procs for 0 steps with 160 atoms

313.2% CPU use with 1 MPI tasks x no OpenMP threads

MPI task timing breakdown:
Section |  min time  |  avg time  |  max time  |%varavg| %total
---------------------------------------------------------------
Pair    | 0          | 0          | 0          |   0.0 |  0.00
Neigh   | 0          | 0          | 0          |   0.0 |  0.00
Comm    | 0          | 0          | 0          |   0.0 |  0.00
Output  | 0          | 0          | 0          |   0.0 |  0.00
Modify  | 0          | 0          | 0          |   0.0 |  0.00
Other   |            | 9.58e-07   |            |       |100.00

Nlocal:            160 ave         160 max         160 min
Histogram: 1 0 0 0 0 0 0 0 0 0
Nghost:            864 ave         864 max         864 min
Histogram: 1 0 0 0 0 0 0 0 0 0
Neighs:           9184 ave        9184 max        9184 min
Histogram: 1 0 0 0 0 0 0 0 0 0

Total # of neighbors = 9184
Ave neighs/atom = 57.4
Neighbor list builds = 0
Dangerous builds = 0
set atom * x 0.0 y 0.0 z 0.0
Setting atom values ...
  160 settings made for x
  160 settings made for y
  160 settings made for z
change_box all     x final 0 10.892830144154548 y final 0 13.340937853993047 z final 0 34.73562445927845      xy final -10.892830144154548 xz final 0.0 yz final 0.0 units box
Changing box ...
  triclinic box = (0 0 0) to (10.89283 13.340938 34.735624) with tilt (-10.89283 0 0)
  triclinic box = (0 0 0) to (10.89283 13.340938 34.735624) with tilt (-10.89283 0 0)
  triclinic box = (0 0 0) to (10.89283 13.340938 34.735624) with tilt (-10.89283 0 0)
  triclinic box = (0 0 0) to (10.89283 13.340938 34.735624) with tilt (-10.89283 0 0)
  triclinic box = (0 0 0) to (10.89283 13.340938 34.735624) with tilt (-10.89283 0 0)
  triclinic box = (0 0 0) to (10.89283 13.340938 34.735624) with tilt (-10.89283 0 0)
echo none
run 0
Per MPI rank memory allocation (min/avg/max) = 3.392 | 3.392 | 3.392 Mbytes
    PotEng          Pxx           E_mol          E_coul    
-593.76485     -1249.1595      0              0            
Loop time of 7.5e-07 on 1 procs for 0 steps with 160 atoms

133.3% CPU use with 1 MPI tasks x no OpenMP threads

MPI task timing breakdown:
Section |  min time  |  avg time  |  max time  |%varavg| %total
---------------------------------------------------------------
Pair    | 0          | 0          | 0          |   0.0 |  0.00
Neigh   | 0          | 0          | 0          |   0.0 |  0.00
Comm    | 0          | 0          | 0          |   0.0 |  0.00
Output  | 0          | 0          | 0          |   0.0 |  0.00
Modify  | 0          | 0          | 0          |   0.0 |  0.00
Other   |            | 7.5e-07    |            |       |100.00

Nlocal:            160 ave         160 max         160 min
Histogram: 1 0 0 0 0 0 0 0 0 0
Nghost:            864 ave         864 max         864 min
Histogram: 1 0 0 0 0 0 0 0 0 0
Neighs:           9184 ave        9184 max        9184 min
Histogram: 1 0 0 0 0 0 0 0 0 0

Total # of neighbors = 9184
Ave neighs/atom = 57.4
Neighbor list builds = 0
Dangerous builds = 0
set atom * x 0.0 y 0.0 z 0.0
Setting atom values ...
  160 settings made for x
  160 settings made for y
  160 settings made for z
change_box all     x final 0 10.892018747573776 y final 0 13.339944100192083 z final 0 34.73303703557456      xy final -10.892018747573776 xz final 0.0 yz final 0.0 units box
Changing box ...
  triclinic box = (0 0 0) to (10.892019 13.340938 34.735624) with tilt (-10.89283 0 0)
  triclinic box = (0 0 0) to (10.892019 13.339944 34.735624) with tilt (-10.89283 0 0)
  triclinic box = (0 0 0) to (10.892019 13.339944 34.733037) with tilt (-10.89283 0 0)
  triclinic box = (0 0 0) to (10.892019 13.339944 34.733037) with tilt (-10.892019 0 0)
  triclinic box = (0 0 0) to (10.892019 13.339944 34.733037) with tilt (-10.892019 0 0)
  triclinic box = (0 0 0) to (10.892019 13.339944 34.733037) with tilt (-10.892019 0 0)
echo none
run 0
Per MPI rank memory allocation (min/avg/max) = 3.392 | 3.392 | 3.392 Mbytes
    PotEng          Pxx           E_mol          E_coul    
-593.76603     -1249.354       0              0            
Loop time of 1e-06 on 1 procs for 0 steps with 160 atoms

200.0% CPU use with 1 MPI tasks x no OpenMP threads

MPI task timing breakdown:
Section |  min time  |  avg time  |  max time  |%varavg| %total
---------------------------------------------------------------
Pair    | 0          | 0          | 0          |   0.0 |  0.00
Neigh   | 0          | 0          | 0          |   0.0 |  0.00
Comm    | 0          | 0          | 0          |   0.0 |  0.00
Output  | 0          | 0          | 0          |   0.0 |  0.00
Modify  | 0          | 0          | 0          |   0.0 |  0.00
Other   |            | 1e-06      |            |       |100.00

Nlocal:            160 ave         160 max         160 min
Histogram: 1 0 0 0 0 0 0 0 0 0
Nghost:            864 ave         864 max         864 min
Histogram: 1 0 0 0 0 0 0 0 0 0
Neighs:           9216 ave        9216 max        9216 min
Histogram: 1 0 0 0 0 0 0 0 0 0

Total # of neighbors = 9216
Ave neighs/atom = 57.6
Neighbor list builds = 0
Dangerous builds = 0
Total wall time: 0:00:12
