LAMMPS (23 Jun 2022 - Update 4)
units metal
atom_style atomic
atom_modify map array sort 0 0
boundary p p p
box tilt large
region cell prism    0 5.038 0 5.038 0 5.038     0.0 0.0 0.0     units box
create_box 1 cell
Created triclinic box = (0 0 0) to (5.038 5.038 5.038) with tilt (0 0 0)
  1 by 1 by 1 MPI processor grid
echo none
Created 4 atoms
  using lattice units in triclinic box = (0 0 0) to (5.038 5.038 5.038) with tilt (0 0 0)
  create_atoms CPU = 0.000 seconds
Setting atom values ...
  1 settings made for type
Setting atom values ...
  1 settings made for type
Setting atom values ...
  1 settings made for type
Setting atom values ...
  1 settings made for type
pair_style eam/alloy
pair_coeff * * potentials/Pb.eam.alloy Pb
Reading eam/alloy potential file potentials/Pb.eam.alloy with DATE: 2018-03-30
mass 1 207.199999946698966368785477243364
variable pxx equal pxx
variable pyy equal pyy
variable pzz equal pzz
variable pxy equal pxy
variable pxz equal pxz
variable pyz equal pyz
thermo_style custom pe pxx emol ecoul
variable fx atom fx
variable fy atom fy
variable fz atom fz
variable pe equal pe
neigh_modify delay 0 every 1 check yes
echo none
run 0
WARNING: No fixes with time integration, atoms won't move (src/src/verlet.cpp:60)
Neighbor list info ...
  update every 1 steps, delay 0 steps, check yes
  max neighbors/atom: 2000, page size: 100000
  master list distance cutoff = 9.8256185
  ghost atom cutoff = 9.8256185
  binsize = 4.9128093, bins = 2 2 2
  1 neighbor lists, perpetual/occasional/extra = 1 0 0
  (1) pair eam/alloy, perpetual
      attributes: half, newton on
      pair build: half/bin/newton/tri
      stencil: half/bin/3d/tri
      bin: standard
Per MPI rank memory allocation (min/avg/max) = 3.213 | 3.213 | 3.213 Mbytes
    PotEng          Pxx           E_mol          E_coul    
-8.0348503     -20531.56       0              0            
Loop time of 1.041e-06 on 1 procs for 0 steps with 4 atoms

96.1% CPU use with 1 MPI tasks x no OpenMP threads

MPI task timing breakdown:
Section |  min time  |  avg time  |  max time  |%varavg| %total
---------------------------------------------------------------
Pair    | 0          | 0          | 0          |   0.0 |  0.00
Neigh   | 0          | 0          | 0          |   0.0 |  0.00
Comm    | 0          | 0          | 0          |   0.0 |  0.00
Output  | 0          | 0          | 0          |   0.0 |  0.00
Modify  | 0          | 0          | 0          |   0.0 |  0.00
Other   |            | 1.041e-06  |            |       |100.00

Nlocal:              4 ave           4 max           4 min
Histogram: 1 0 0 0 0 0 0 0 0 0
Nghost:            360 ave         360 max         360 min
Histogram: 1 0 0 0 0 0 0 0 0 0
Neighs:            268 ave         268 max         268 min
Histogram: 1 0 0 0 0 0 0 0 0 0

Total # of neighbors = 268
Ave neighs/atom = 67
Neighbor list builds = 0
Dangerous builds = 0
set atom * x 0.0 y 0.0 z 0.0
Setting atom values ...
  4 settings made for x
  4 settings made for y
  4 settings made for z
change_box all     x final 0 4.276539849529162 y final 0 4.276539849529162 z final 0 4.276539849529162      xy final 0.0 xz final 0.0 yz final 0.0 units box
Changing box ...
  triclinic box = (0 0 0) to (4.2765398 5.038 5.038) with tilt (0 0 0)
  triclinic box = (0 0 0) to (4.2765398 4.2765398 5.038) with tilt (0 0 0)
  triclinic box = (0 0 0) to (4.2765398 4.2765398 4.2765398) with tilt (0 0 0)
  triclinic box = (0 0 0) to (4.2765398 4.2765398 4.2765398) with tilt (0 0 0)
  triclinic box = (0 0 0) to (4.2765398 4.2765398 4.2765398) with tilt (0 0 0)
  triclinic box = (0 0 0) to (4.2765398 4.2765398 4.2765398) with tilt (0 0 0)
echo none
run 0
WARNING: No fixes with time integration, atoms won't move (src/src/verlet.cpp:60)
Per MPI rank memory allocation (min/avg/max) = 3.245 | 3.245 | 3.245 Mbytes
    PotEng          Pxx           E_mol          E_coul    
-3.1360989      561021.41      0              0            
Loop time of 1.083e-06 on 1 procs for 0 steps with 4 atoms

92.3% CPU use with 1 MPI tasks x no OpenMP threads

MPI task timing breakdown:
Section |  min time  |  avg time  |  max time  |%varavg| %total
---------------------------------------------------------------
Pair    | 0          | 0          | 0          |   0.0 |  0.00
Neigh   | 0          | 0          | 0          |   0.0 |  0.00
Comm    | 0          | 0          | 0          |   0.0 |  0.00
Output  | 0          | 0          | 0          |   0.0 |  0.00
Modify  | 0          | 0          | 0          |   0.0 |  0.00
Other   |            | 1.083e-06  |            |       |100.00

Nlocal:              4 ave           4 max           4 min
Histogram: 1 0 0 0 0 0 0 0 0 0
Nghost:            662 ave         662 max         662 min
Histogram: 1 0 0 0 0 0 0 0 0 0
Neighs:            400 ave         400 max         400 min
Histogram: 1 0 0 0 0 0 0 0 0 0

Total # of neighbors = 400
Ave neighs/atom = 100
Neighbor list builds = 0
Dangerous builds = 0
set atom * x 0.0 y 0.0 z 0.0
Setting atom values ...
  4 settings made for x
  4 settings made for y
  4 settings made for z
change_box all     x final 0 4.959962267619986 y final 0 4.959962267619986 z final 0 4.959962267619986      xy final 0.0 xz final 0.0 yz final 0.0 units box
Changing box ...
  triclinic box = (0 0 0) to (4.9599623 4.2765398 4.2765398) with tilt (0 0 0)
  triclinic box = (0 0 0) to (4.9599623 4.9599623 4.2765398) with tilt (0 0 0)
  triclinic box = (0 0 0) to (4.9599623 4.9599623 4.9599623) with tilt (0 0 0)
  triclinic box = (0 0 0) to (4.9599623 4.9599623 4.9599623) with tilt (0 0 0)
  triclinic box = (0 0 0) to (4.9599623 4.9599623 4.9599623) with tilt (0 0 0)
  triclinic box = (0 0 0) to (4.9599623 4.9599623 4.9599623) with tilt (0 0 0)
echo none
run 0
WARNING: No fixes with time integration, atoms won't move (src/src/verlet.cpp:60)
Per MPI rank memory allocation (min/avg/max) = 3.221 | 3.221 | 3.221 Mbytes
    PotEng          Pxx           E_mol          E_coul    
-8.0792919     -2823.3628      0              0            
Loop time of 8.34e-07 on 1 procs for 0 steps with 4 atoms

119.9% CPU use with 1 MPI tasks x no OpenMP threads

MPI task timing breakdown:
Section |  min time  |  avg time  |  max time  |%varavg| %total
---------------------------------------------------------------
Pair    | 0          | 0          | 0          |   0.0 |  0.00
Neigh   | 0          | 0          | 0          |   0.0 |  0.00
Comm    | 0          | 0          | 0          |   0.0 |  0.00
Output  | 0          | 0          | 0          |   0.0 |  0.00
Modify  | 0          | 0          | 0          |   0.0 |  0.00
Other   |            | 8.34e-07   |            |       |100.00

Nlocal:              4 ave           4 max           4 min
Histogram: 1 0 0 0 0 0 0 0 0 0
Nghost:            360 ave         360 max         360 min
Histogram: 1 0 0 0 0 0 0 0 0 0
Neighs:            268 ave         268 max         268 min
Histogram: 1 0 0 0 0 0 0 0 0 0

Total # of neighbors = 268
Ave neighs/atom = 67
Neighbor list builds = 0
Dangerous builds = 0
set atom * x 0.0 y 0.0 z 0.0
Setting atom values ...
  4 settings made for x
  4 settings made for y
  4 settings made for z
change_box all     x final 0 4.94828087070401 y final 0 4.94828087070401 z final 0 4.94828087070401      xy final 0.0 xz final 0.0 yz final 0.0 units box
Changing box ...
  triclinic box = (0 0 0) to (4.9482809 4.9599623 4.9599623) with tilt (0 0 0)
  triclinic box = (0 0 0) to (4.9482809 4.9482809 4.9599623) with tilt (0 0 0)
  triclinic box = (0 0 0) to (4.9482809 4.9482809 4.9482809) with tilt (0 0 0)
  triclinic box = (0 0 0) to (4.9482809 4.9482809 4.9482809) with tilt (0 0 0)
  triclinic box = (0 0 0) to (4.9482809 4.9482809 4.9482809) with tilt (0 0 0)
  triclinic box = (0 0 0) to (4.9482809 4.9482809 4.9482809) with tilt (0 0 0)
echo none
run 0
WARNING: No fixes with time integration, atoms won't move (src/src/verlet.cpp:60)
Per MPI rank memory allocation (min/avg/max) = 3.221 | 3.221 | 3.221 Mbytes
    PotEng          Pxx           E_mol          E_coul    
-8.0799852      292.09576      0              0            
Loop time of 9.58e-07 on 1 procs for 0 steps with 4 atoms

0.0% CPU use with 1 MPI tasks x no OpenMP threads

MPI task timing breakdown:
Section |  min time  |  avg time  |  max time  |%varavg| %total
---------------------------------------------------------------
Pair    | 0          | 0          | 0          |   0.0 |  0.00
Neigh   | 0          | 0          | 0          |   0.0 |  0.00
Comm    | 0          | 0          | 0          |   0.0 |  0.00
Output  | 0          | 0          | 0          |   0.0 |  0.00
Modify  | 0          | 0          | 0          |   0.0 |  0.00
Other   |            | 9.58e-07   |            |       |100.00

Nlocal:              4 ave           4 max           4 min
Histogram: 1 0 0 0 0 0 0 0 0 0
Nghost:            360 ave         360 max         360 min
Histogram: 1 0 0 0 0 0 0 0 0 0
Neighs:            268 ave         268 max         268 min
Histogram: 1 0 0 0 0 0 0 0 0 0

Total # of neighbors = 268
Ave neighs/atom = 67
Neighbor list builds = 0
Dangerous builds = 0
set atom * x 0.0 y 0.0 z 0.0
Setting atom values ...
  4 settings made for x
  4 settings made for y
  4 settings made for z
change_box all     x final 0 4.949367918555208 y final 0 4.949367918555208 z final 0 4.949367918555208      xy final 0.0 xz final 0.0 yz final 0.0 units box
Changing box ...
  triclinic box = (0 0 0) to (4.9493679 4.9482809 4.9482809) with tilt (0 0 0)
  triclinic box = (0 0 0) to (4.9493679 4.9493679 4.9482809) with tilt (0 0 0)
  triclinic box = (0 0 0) to (4.9493679 4.9493679 4.9493679) with tilt (0 0 0)
  triclinic box = (0 0 0) to (4.9493679 4.9493679 4.9493679) with tilt (0 0 0)
  triclinic box = (0 0 0) to (4.9493679 4.9493679 4.9493679) with tilt (0 0 0)
  triclinic box = (0 0 0) to (4.9493679 4.9493679 4.9493679) with tilt (0 0 0)
echo none
run 0
WARNING: No fixes with time integration, atoms won't move (src/src/verlet.cpp:60)
Per MPI rank memory allocation (min/avg/max) = 3.221 | 3.221 | 3.221 Mbytes
    PotEng          Pxx           E_mol          E_coul    
-8.0799844     -1.7773935      0              0            
Loop time of 9.17e-07 on 1 procs for 0 steps with 4 atoms

109.1% CPU use with 1 MPI tasks x no OpenMP threads

MPI task timing breakdown:
Section |  min time  |  avg time  |  max time  |%varavg| %total
---------------------------------------------------------------
Pair    | 0          | 0          | 0          |   0.0 |  0.00
Neigh   | 0          | 0          | 0          |   0.0 |  0.00
Comm    | 0          | 0          | 0          |   0.0 |  0.00
Output  | 0          | 0          | 0          |   0.0 |  0.00
Modify  | 0          | 0          | 0          |   0.0 |  0.00
Other   |            | 9.17e-07   |            |       |100.00

Nlocal:              4 ave           4 max           4 min
Histogram: 1 0 0 0 0 0 0 0 0 0
Nghost:            360 ave         360 max         360 min
Histogram: 1 0 0 0 0 0 0 0 0 0
Neighs:            268 ave         268 max         268 min
Histogram: 1 0 0 0 0 0 0 0 0 0

Total # of neighbors = 268
Ave neighs/atom = 67
Neighbor list builds = 0
Dangerous builds = 0
set atom * x 0.0 y 0.0 z 0.0
Setting atom values ...
  4 settings made for x
  4 settings made for y
  4 settings made for z
change_box all     x final 0 4.9486071505693605 y final 0 4.9486071505693605 z final 0 4.9486071505693605      xy final 0.0 xz final 0.0 yz final 0.0 units box
Changing box ...
  triclinic box = (0 0 0) to (4.9486072 4.9493679 4.9493679) with tilt (0 0 0)
  triclinic box = (0 0 0) to (4.9486072 4.9486072 4.9493679) with tilt (0 0 0)
  triclinic box = (0 0 0) to (4.9486072 4.9486072 4.9486072) with tilt (0 0 0)
  triclinic box = (0 0 0) to (4.9486072 4.9486072 4.9486072) with tilt (0 0 0)
  triclinic box = (0 0 0) to (4.9486072 4.9486072 4.9486072) with tilt (0 0 0)
  triclinic box = (0 0 0) to (4.9486072 4.9486072 4.9486072) with tilt (0 0 0)
echo none
run 0
WARNING: No fixes with time integration, atoms won't move (src/src/verlet.cpp:60)
Per MPI rank memory allocation (min/avg/max) = 3.221 | 3.221 | 3.221 Mbytes
    PotEng          Pxx           E_mol          E_coul    
-8.0799889      203.38498      0              0            
Loop time of 1.125e-06 on 1 procs for 0 steps with 4 atoms

0.0% CPU use with 1 MPI tasks x no OpenMP threads

MPI task timing breakdown:
Section |  min time  |  avg time  |  max time  |%varavg| %total
---------------------------------------------------------------
Pair    | 0          | 0          | 0          |   0.0 |  0.00
Neigh   | 0          | 0          | 0          |   0.0 |  0.00
Comm    | 0          | 0          | 0          |   0.0 |  0.00
Output  | 0          | 0          | 0          |   0.0 |  0.00
Modify  | 0          | 0          | 0          |   0.0 |  0.00
Other   |            | 1.125e-06  |            |       |100.00

Nlocal:              4 ave           4 max           4 min
Histogram: 1 0 0 0 0 0 0 0 0 0
Nghost:            360 ave         360 max         360 min
Histogram: 1 0 0 0 0 0 0 0 0 0
Neighs:            268 ave         268 max         268 min
Histogram: 1 0 0 0 0 0 0 0 0 0

Total # of neighbors = 268
Ave neighs/atom = 67
Neighbor list builds = 0
Dangerous builds = 0
set atom * x 0.0 y 0.0 z 0.0
Setting atom values ...
  4 settings made for x
  4 settings made for y
  4 settings made for z
change_box all     x final 0 4.949109244318489 y final 0 4.949109244318489 z final 0 4.949109244318489      xy final 0.0 xz final 0.0 yz final 0.0 units box
Changing box ...
  triclinic box = (0 0 0) to (4.9491092 4.9486072 4.9486072) with tilt (0 0 0)
  triclinic box = (0 0 0) to (4.9491092 4.9491092 4.9486072) with tilt (0 0 0)
  triclinic box = (0 0 0) to (4.9491092 4.9491092 4.9491092) with tilt (0 0 0)
  triclinic box = (0 0 0) to (4.9491092 4.9491092 4.9491092) with tilt (0 0 0)
  triclinic box = (0 0 0) to (4.9491092 4.9491092 4.9491092) with tilt (0 0 0)
  triclinic box = (0 0 0) to (4.9491092 4.9491092 4.9491092) with tilt (0 0 0)
echo none
run 0
WARNING: No fixes with time integration, atoms won't move (src/src/verlet.cpp:60)
Per MPI rank memory allocation (min/avg/max) = 3.221 | 3.221 | 3.221 Mbytes
    PotEng          Pxx           E_mol          E_coul    
-8.079992       67.055313      0              0            
Loop time of 1.042e-06 on 1 procs for 0 steps with 4 atoms

96.0% CPU use with 1 MPI tasks x no OpenMP threads

MPI task timing breakdown:
Section |  min time  |  avg time  |  max time  |%varavg| %total
---------------------------------------------------------------
Pair    | 0          | 0          | 0          |   0.0 |  0.00
Neigh   | 0          | 0          | 0          |   0.0 |  0.00
Comm    | 0          | 0          | 0          |   0.0 |  0.00
Output  | 0          | 0          | 0          |   0.0 |  0.00
Modify  | 0          | 0          | 0          |   0.0 |  0.00
Other   |            | 1.042e-06  |            |       |100.00

Nlocal:              4 ave           4 max           4 min
Histogram: 1 0 0 0 0 0 0 0 0 0
Nghost:            360 ave         360 max         360 min
Histogram: 1 0 0 0 0 0 0 0 0 0
Neighs:            268 ave         268 max         268 min
Histogram: 1 0 0 0 0 0 0 0 0 0

Total # of neighbors = 268
Ave neighs/atom = 67
Neighbor list builds = 0
Dangerous builds = 0
set atom * x 0.0 y 0.0 z 0.0
Setting atom values ...
  4 settings made for x
  4 settings made for y
  4 settings made for z
change_box all     x final 0 4.454198319886641 y final 0 4.454198319886641 z final 0 4.454198319886641      xy final 0.0 xz final 0.0 yz final 0.0 units box
Changing box ...
  triclinic box = (0 0 0) to (4.4541983 4.9491092 4.9491092) with tilt (0 0 0)
  triclinic box = (0 0 0) to (4.4541983 4.4541983 4.9491092) with tilt (0 0 0)
  triclinic box = (0 0 0) to (4.4541983 4.4541983 4.4541983) with tilt (0 0 0)
  triclinic box = (0 0 0) to (4.4541983 4.4541983 4.4541983) with tilt (0 0 0)
  triclinic box = (0 0 0) to (4.4541983 4.4541983 4.4541983) with tilt (0 0 0)
  triclinic box = (0 0 0) to (4.4541983 4.4541983 4.4541983) with tilt (0 0 0)
echo none
run 0
WARNING: No fixes with time integration, atoms won't move (src/src/verlet.cpp:60)
Per MPI rank memory allocation (min/avg/max) = 3.245 | 3.245 | 3.245 Mbytes
    PotEng          Pxx           E_mol          E_coul    
-5.7964417      302334.41      0              0            
Loop time of 1e-06 on 1 procs for 0 steps with 4 atoms

0.0% CPU use with 1 MPI tasks x no OpenMP threads

MPI task timing breakdown:
Section |  min time  |  avg time  |  max time  |%varavg| %total
---------------------------------------------------------------
Pair    | 0          | 0          | 0          |   0.0 |  0.00
Neigh   | 0          | 0          | 0          |   0.0 |  0.00
Comm    | 0          | 0          | 0          |   0.0 |  0.00
Output  | 0          | 0          | 0          |   0.0 |  0.00
Modify  | 0          | 0          | 0          |   0.0 |  0.00
Other   |            | 1e-06      |            |       |100.00

Nlocal:              4 ave           4 max           4 min
Histogram: 1 0 0 0 0 0 0 0 0 0
Nghost:            662 ave         662 max         662 min
Histogram: 1 0 0 0 0 0 0 0 0 0
Neighs:            352 ave         352 max         352 min
Histogram: 1 0 0 0 0 0 0 0 0 0

Total # of neighbors = 352
Ave neighs/atom = 88
Neighbor list builds = 0
Dangerous builds = 0
set atom * x 0.0 y 0.0 z 0.0
Setting atom values ...
  4 settings made for x
  4 settings made for y
  4 settings made for z
change_box all     x final 0 4.503689412329825 y final 0 4.503689412329825 z final 0 4.503689412329825      xy final 0.0 xz final 0.0 yz final 0.0 units box
Changing box ...
  triclinic box = (0 0 0) to (4.5036894 4.4541983 4.4541983) with tilt (0 0 0)
  triclinic box = (0 0 0) to (4.5036894 4.5036894 4.4541983) with tilt (0 0 0)
  triclinic box = (0 0 0) to (4.5036894 4.5036894 4.5036894) with tilt (0 0 0)
  triclinic box = (0 0 0) to (4.5036894 4.5036894 4.5036894) with tilt (0 0 0)
  triclinic box = (0 0 0) to (4.5036894 4.5036894 4.5036894) with tilt (0 0 0)
  triclinic box = (0 0 0) to (4.5036894 4.5036894 4.5036894) with tilt (0 0 0)
echo none
run 0
WARNING: No fixes with time integration, atoms won't move (src/src/verlet.cpp:60)
Per MPI rank memory allocation (min/avg/max) = 3.245 | 3.245 | 3.245 Mbytes
    PotEng          Pxx           E_mol          E_coul    
-6.3085541      249988.18      0              0            
Loop time of 8.75e-07 on 1 procs for 0 steps with 4 atoms

114.3% CPU use with 1 MPI tasks x no OpenMP threads

MPI task timing breakdown:
Section |  min time  |  avg time  |  max time  |%varavg| %total
---------------------------------------------------------------
Pair    | 0          | 0          | 0          |   0.0 |  0.00
Neigh   | 0          | 0          | 0          |   0.0 |  0.00
Comm    | 0          | 0          | 0          |   0.0 |  0.00
Output  | 0          | 0          | 0          |   0.0 |  0.00
Modify  | 0          | 0          | 0          |   0.0 |  0.00
Other   |            | 8.75e-07   |            |       |100.00

Nlocal:              4 ave           4 max           4 min
Histogram: 1 0 0 0 0 0 0 0 0 0
Nghost:            662 ave         662 max         662 min
Histogram: 1 0 0 0 0 0 0 0 0 0
Neighs:            352 ave         352 max         352 min
Histogram: 1 0 0 0 0 0 0 0 0 0

Total # of neighbors = 352
Ave neighs/atom = 88
Neighbor list builds = 0
Dangerous builds = 0
set atom * x 0.0 y 0.0 z 0.0
Setting atom values ...
  4 settings made for x
  4 settings made for y
  4 settings made for z
change_box all     x final 0 4.55318050477301 y final 0 4.55318050477301 z final 0 4.55318050477301      xy final 0.0 xz final 0.0 yz final 0.0 units box
Changing box ...
  triclinic box = (0 0 0) to (4.5531805 4.5036894 4.5036894) with tilt (0 0 0)
  triclinic box = (0 0 0) to (4.5531805 4.5531805 4.5036894) with tilt (0 0 0)
  triclinic box = (0 0 0) to (4.5531805 4.5531805 4.5531805) with tilt (0 0 0)
  triclinic box = (0 0 0) to (4.5531805 4.5531805 4.5531805) with tilt (0 0 0)
  triclinic box = (0 0 0) to (4.5531805 4.5531805 4.5531805) with tilt (0 0 0)
  triclinic box = (0 0 0) to (4.5531805 4.5531805 4.5531805) with tilt (0 0 0)
echo none
run 0
WARNING: No fixes with time integration, atoms won't move (src/src/verlet.cpp:60)
Per MPI rank memory allocation (min/avg/max) = 3.245 | 3.245 | 3.245 Mbytes
    PotEng          Pxx           E_mol          E_coul    
-6.7391002      204338.95      0              0            
Loop time of 1.083e-06 on 1 procs for 0 steps with 4 atoms

0.0% CPU use with 1 MPI tasks x no OpenMP threads

MPI task timing breakdown:
Section |  min time  |  avg time  |  max time  |%varavg| %total
---------------------------------------------------------------
Pair    | 0          | 0          | 0          |   0.0 |  0.00
Neigh   | 0          | 0          | 0          |   0.0 |  0.00
Comm    | 0          | 0          | 0          |   0.0 |  0.00
Output  | 0          | 0          | 0          |   0.0 |  0.00
Modify  | 0          | 0          | 0          |   0.0 |  0.00
Other   |            | 1.083e-06  |            |       |100.00

Nlocal:              4 ave           4 max           4 min
Histogram: 1 0 0 0 0 0 0 0 0 0
Nghost:            662 ave         662 max         662 min
Histogram: 1 0 0 0 0 0 0 0 0 0
Neighs:            352 ave         352 max         352 min
Histogram: 1 0 0 0 0 0 0 0 0 0

Total # of neighbors = 352
Ave neighs/atom = 88
Neighbor list builds = 0
Dangerous builds = 0
set atom * x 0.0 y 0.0 z 0.0
Setting atom values ...
  4 settings made for x
  4 settings made for y
  4 settings made for z
change_box all     x final 0 4.602671597216195 y final 0 4.602671597216195 z final 0 4.602671597216195      xy final 0.0 xz final 0.0 yz final 0.0 units box
Changing box ...
  triclinic box = (0 0 0) to (4.6026716 4.5531805 4.5531805) with tilt (0 0 0)
  triclinic box = (0 0 0) to (4.6026716 4.6026716 4.5531805) with tilt (0 0 0)
  triclinic box = (0 0 0) to (4.6026716 4.6026716 4.6026716) with tilt (0 0 0)
  triclinic box = (0 0 0) to (4.6026716 4.6026716 4.6026716) with tilt (0 0 0)
  triclinic box = (0 0 0) to (4.6026716 4.6026716 4.6026716) with tilt (0 0 0)
  triclinic box = (0 0 0) to (4.6026716 4.6026716 4.6026716) with tilt (0 0 0)
echo none
run 0
WARNING: No fixes with time integration, atoms won't move (src/src/verlet.cpp:60)
Per MPI rank memory allocation (min/avg/max) = 3.245 | 3.245 | 3.245 Mbytes
    PotEng          Pxx           E_mol          E_coul    
-7.0962772      164531.17      0              0            
Loop time of 1.042e-06 on 1 procs for 0 steps with 4 atoms

191.9% CPU use with 1 MPI tasks x no OpenMP threads

MPI task timing breakdown:
Section |  min time  |  avg time  |  max time  |%varavg| %total
---------------------------------------------------------------
Pair    | 0          | 0          | 0          |   0.0 |  0.00
Neigh   | 0          | 0          | 0          |   0.0 |  0.00
Comm    | 0          | 0          | 0          |   0.0 |  0.00
Output  | 0          | 0          | 0          |   0.0 |  0.00
Modify  | 0          | 0          | 0          |   0.0 |  0.00
Other   |            | 1.042e-06  |            |       |100.00

Nlocal:              4 ave           4 max           4 min
Histogram: 1 0 0 0 0 0 0 0 0 0
Nghost:            662 ave         662 max         662 min
Histogram: 1 0 0 0 0 0 0 0 0 0
Neighs:            352 ave         352 max         352 min
Histogram: 1 0 0 0 0 0 0 0 0 0

Total # of neighbors = 352
Ave neighs/atom = 88
Neighbor list builds = 0
Dangerous builds = 0
set atom * x 0.0 y 0.0 z 0.0
Setting atom values ...
  4 settings made for x
  4 settings made for y
  4 settings made for z
change_box all     x final 0 4.65216268965938 y final 0 4.65216268965938 z final 0 4.65216268965938      xy final 0.0 xz final 0.0 yz final 0.0 units box
Changing box ...
  triclinic box = (0 0 0) to (4.6521627 4.6026716 4.6026716) with tilt (0 0 0)
  triclinic box = (0 0 0) to (4.6521627 4.6521627 4.6026716) with tilt (0 0 0)
  triclinic box = (0 0 0) to (4.6521627 4.6521627 4.6521627) with tilt (0 0 0)
  triclinic box = (0 0 0) to (4.6521627 4.6521627 4.6521627) with tilt (0 0 0)
  triclinic box = (0 0 0) to (4.6521627 4.6521627 4.6521627) with tilt (0 0 0)
  triclinic box = (0 0 0) to (4.6521627 4.6521627 4.6521627) with tilt (0 0 0)
echo none
run 0
WARNING: No fixes with time integration, atoms won't move (src/src/verlet.cpp:60)
Per MPI rank memory allocation (min/avg/max) = 3.245 | 3.245 | 3.245 Mbytes
    PotEng          Pxx           E_mol          E_coul    
-7.3874146      129817.73      0              0            
Loop time of 1.083e-06 on 1 procs for 0 steps with 4 atoms

184.7% CPU use with 1 MPI tasks x no OpenMP threads

MPI task timing breakdown:
Section |  min time  |  avg time  |  max time  |%varavg| %total
---------------------------------------------------------------
Pair    | 0          | 0          | 0          |   0.0 |  0.00
Neigh   | 0          | 0          | 0          |   0.0 |  0.00
Comm    | 0          | 0          | 0          |   0.0 |  0.00
Output  | 0          | 0          | 0          |   0.0 |  0.00
Modify  | 0          | 0          | 0          |   0.0 |  0.00
Other   |            | 1.083e-06  |            |       |100.00

Nlocal:              4 ave           4 max           4 min
Histogram: 1 0 0 0 0 0 0 0 0 0
Nghost:            662 ave         662 max         662 min
Histogram: 1 0 0 0 0 0 0 0 0 0
Neighs:            280 ave         280 max         280 min
Histogram: 1 0 0 0 0 0 0 0 0 0

Total # of neighbors = 280
Ave neighs/atom = 70
Neighbor list builds = 0
Dangerous builds = 0
set atom * x 0.0 y 0.0 z 0.0
Setting atom values ...
  4 settings made for x
  4 settings made for y
  4 settings made for z
change_box all     x final 0 4.701653782102565 y final 0 4.701653782102565 z final 0 4.701653782102565      xy final 0.0 xz final 0.0 yz final 0.0 units box
Changing box ...
  triclinic box = (0 0 0) to (4.7016538 4.6521627 4.6521627) with tilt (0 0 0)
  triclinic box = (0 0 0) to (4.7016538 4.7016538 4.6521627) with tilt (0 0 0)
  triclinic box = (0 0 0) to (4.7016538 4.7016538 4.7016538) with tilt (0 0 0)
  triclinic box = (0 0 0) to (4.7016538 4.7016538 4.7016538) with tilt (0 0 0)
  triclinic box = (0 0 0) to (4.7016538 4.7016538 4.7016538) with tilt (0 0 0)
  triclinic box = (0 0 0) to (4.7016538 4.7016538 4.7016538) with tilt (0 0 0)
echo none
run 0
WARNING: No fixes with time integration, atoms won't move (src/src/verlet.cpp:60)
Per MPI rank memory allocation (min/avg/max) = 3.245 | 3.245 | 3.245 Mbytes
    PotEng          Pxx           E_mol          E_coul    
-7.6190769      99556.354      0              0            
Loop time of 1.125e-06 on 1 procs for 0 steps with 4 atoms

88.9% CPU use with 1 MPI tasks x no OpenMP threads

MPI task timing breakdown:
Section |  min time  |  avg time  |  max time  |%varavg| %total
---------------------------------------------------------------
Pair    | 0          | 0          | 0          |   0.0 |  0.00
Neigh   | 0          | 0          | 0          |   0.0 |  0.00
Comm    | 0          | 0          | 0          |   0.0 |  0.00
Output  | 0          | 0          | 0          |   0.0 |  0.00
Modify  | 0          | 0          | 0          |   0.0 |  0.00
Other   |            | 1.125e-06  |            |       |100.00

Nlocal:              4 ave           4 max           4 min
Histogram: 1 0 0 0 0 0 0 0 0 0
Nghost:            662 ave         662 max         662 min
Histogram: 1 0 0 0 0 0 0 0 0 0
Neighs:            280 ave         280 max         280 min
Histogram: 1 0 0 0 0 0 0 0 0 0

Total # of neighbors = 280
Ave neighs/atom = 70
Neighbor list builds = 0
Dangerous builds = 0
set atom * x 0.0 y 0.0 z 0.0
Setting atom values ...
  4 settings made for x
  4 settings made for y
  4 settings made for z
change_box all     x final 0 4.75114487454575 y final 0 4.75114487454575 z final 0 4.75114487454575      xy final 0.0 xz final 0.0 yz final 0.0 units box
Changing box ...
  triclinic box = (0 0 0) to (4.7511449 4.7016538 4.7016538) with tilt (0 0 0)
  triclinic box = (0 0 0) to (4.7511449 4.7511449 4.7016538) with tilt (0 0 0)
  triclinic box = (0 0 0) to (4.7511449 4.7511449 4.7511449) with tilt (0 0 0)
  triclinic box = (0 0 0) to (4.7511449 4.7511449 4.7511449) with tilt (0 0 0)
  triclinic box = (0 0 0) to (4.7511449 4.7511449 4.7511449) with tilt (0 0 0)
  triclinic box = (0 0 0) to (4.7511449 4.7511449 4.7511449) with tilt (0 0 0)
echo none
run 0
WARNING: No fixes with time integration, atoms won't move (src/src/verlet.cpp:60)
Per MPI rank memory allocation (min/avg/max) = 3.245 | 3.245 | 3.245 Mbytes
    PotEng          Pxx           E_mol          E_coul    
-7.7971743      73211.517      0              0            
Loop time of 1.042e-06 on 1 procs for 0 steps with 4 atoms

96.0% CPU use with 1 MPI tasks x no OpenMP threads

MPI task timing breakdown:
Section |  min time  |  avg time  |  max time  |%varavg| %total
---------------------------------------------------------------
Pair    | 0          | 0          | 0          |   0.0 |  0.00
Neigh   | 0          | 0          | 0          |   0.0 |  0.00
Comm    | 0          | 0          | 0          |   0.0 |  0.00
Output  | 0          | 0          | 0          |   0.0 |  0.00
Modify  | 0          | 0          | 0          |   0.0 |  0.00
Other   |            | 1.042e-06  |            |       |100.00

Nlocal:              4 ave           4 max           4 min
Histogram: 1 0 0 0 0 0 0 0 0 0
Nghost:            662 ave         662 max         662 min
Histogram: 1 0 0 0 0 0 0 0 0 0
Neighs:            280 ave         280 max         280 min
Histogram: 1 0 0 0 0 0 0 0 0 0

Total # of neighbors = 280
Ave neighs/atom = 70
Neighbor list builds = 0
Dangerous builds = 0
set atom * x 0.0 y 0.0 z 0.0
Setting atom values ...
  4 settings made for x
  4 settings made for y
  4 settings made for z
change_box all     x final 0 4.800635966988935 y final 0 4.800635966988935 z final 0 4.800635966988935      xy final 0.0 xz final 0.0 yz final 0.0 units box
Changing box ...
  triclinic box = (0 0 0) to (4.800636 4.7511449 4.7511449) with tilt (0 0 0)
  triclinic box = (0 0 0) to (4.800636 4.800636 4.7511449) with tilt (0 0 0)
  triclinic box = (0 0 0) to (4.800636 4.800636 4.800636) with tilt (0 0 0)
  triclinic box = (0 0 0) to (4.800636 4.800636 4.800636) with tilt (0 0 0)
  triclinic box = (0 0 0) to (4.800636 4.800636 4.800636) with tilt (0 0 0)
  triclinic box = (0 0 0) to (4.800636 4.800636 4.800636) with tilt (0 0 0)
echo none
run 0
WARNING: No fixes with time integration, atoms won't move (src/src/verlet.cpp:60)
Per MPI rank memory allocation (min/avg/max) = 3.245 | 3.245 | 3.245 Mbytes
    PotEng          Pxx           E_mol          E_coul    
-7.9271047      50359.341      0              0            
Loop time of 8.75e-07 on 1 procs for 0 steps with 4 atoms

0.0% CPU use with 1 MPI tasks x no OpenMP threads

MPI task timing breakdown:
Section |  min time  |  avg time  |  max time  |%varavg| %total
---------------------------------------------------------------
Pair    | 0          | 0          | 0          |   0.0 |  0.00
Neigh   | 0          | 0          | 0          |   0.0 |  0.00
Comm    | 0          | 0          | 0          |   0.0 |  0.00
Output  | 0          | 0          | 0          |   0.0 |  0.00
Modify  | 0          | 0          | 0          |   0.0 |  0.00
Other   |            | 8.75e-07   |            |       |100.00

Nlocal:              4 ave           4 max           4 min
Histogram: 1 0 0 0 0 0 0 0 0 0
Nghost:            662 ave         662 max         662 min
Histogram: 1 0 0 0 0 0 0 0 0 0
Neighs:            280 ave         280 max         280 min
Histogram: 1 0 0 0 0 0 0 0 0 0

Total # of neighbors = 280
Ave neighs/atom = 70
Neighbor list builds = 0
Dangerous builds = 0
set atom * x 0.0 y 0.0 z 0.0
Setting atom values ...
  4 settings made for x
  4 settings made for y
  4 settings made for z
change_box all     x final 0 4.850127059432119 y final 0 4.850127059432119 z final 0 4.850127059432119      xy final 0.0 xz final 0.0 yz final 0.0 units box
Changing box ...
  triclinic box = (0 0 0) to (4.8501271 4.800636 4.800636) with tilt (0 0 0)
  triclinic box = (0 0 0) to (4.8501271 4.8501271 4.800636) with tilt (0 0 0)
  triclinic box = (0 0 0) to (4.8501271 4.8501271 4.8501271) with tilt (0 0 0)
  triclinic box = (0 0 0) to (4.8501271 4.8501271 4.8501271) with tilt (0 0 0)
  triclinic box = (0 0 0) to (4.8501271 4.8501271 4.8501271) with tilt (0 0 0)
  triclinic box = (0 0 0) to (4.8501271 4.8501271 4.8501271) with tilt (0 0 0)
echo none
run 0
WARNING: No fixes with time integration, atoms won't move (src/src/verlet.cpp:60)
Per MPI rank memory allocation (min/avg/max) = 3.245 | 3.245 | 3.245 Mbytes
    PotEng          Pxx           E_mol          E_coul    
-8.0141329      31098.609      0              0            
Loop time of 9.58e-07 on 1 procs for 0 steps with 4 atoms

0.0% CPU use with 1 MPI tasks x no OpenMP threads

MPI task timing breakdown:
Section |  min time  |  avg time  |  max time  |%varavg| %total
---------------------------------------------------------------
Pair    | 0          | 0          | 0          |   0.0 |  0.00
Neigh   | 0          | 0          | 0          |   0.0 |  0.00
Comm    | 0          | 0          | 0          |   0.0 |  0.00
Output  | 0          | 0          | 0          |   0.0 |  0.00
Modify  | 0          | 0          | 0          |   0.0 |  0.00
Other   |            | 9.58e-07   |            |       |100.00

Nlocal:              4 ave           4 max           4 min
Histogram: 1 0 0 0 0 0 0 0 0 0
Nghost:            662 ave         662 max         662 min
Histogram: 1 0 0 0 0 0 0 0 0 0
Neighs:            280 ave         280 max         280 min
Histogram: 1 0 0 0 0 0 0 0 0 0

Total # of neighbors = 280
Ave neighs/atom = 70
Neighbor list builds = 0
Dangerous builds = 0
set atom * x 0.0 y 0.0 z 0.0
Setting atom values ...
  4 settings made for x
  4 settings made for y
  4 settings made for z
change_box all     x final 0 4.899618151875305 y final 0 4.899618151875305 z final 0 4.899618151875305      xy final 0.0 xz final 0.0 yz final 0.0 units box
Changing box ...
  triclinic box = (0 0 0) to (4.8996182 4.8501271 4.8501271) with tilt (0 0 0)
  triclinic box = (0 0 0) to (4.8996182 4.8996182 4.8501271) with tilt (0 0 0)
  triclinic box = (0 0 0) to (4.8996182 4.8996182 4.8996182) with tilt (0 0 0)
  triclinic box = (0 0 0) to (4.8996182 4.8996182 4.8996182) with tilt (0 0 0)
  triclinic box = (0 0 0) to (4.8996182 4.8996182 4.8996182) with tilt (0 0 0)
  triclinic box = (0 0 0) to (4.8996182 4.8996182 4.8996182) with tilt (0 0 0)
echo none
run 0
WARNING: No fixes with time integration, atoms won't move (src/src/verlet.cpp:60)
Per MPI rank memory allocation (min/avg/max) = 3.245 | 3.245 | 3.245 Mbytes
    PotEng          Pxx           E_mol          E_coul    
-8.064002       14566.891      0              0            
Loop time of 8.75e-07 on 1 procs for 0 steps with 4 atoms

0.0% CPU use with 1 MPI tasks x no OpenMP threads

MPI task timing breakdown:
Section |  min time  |  avg time  |  max time  |%varavg| %total
---------------------------------------------------------------
Pair    | 0          | 0          | 0          |   0.0 |  0.00
Neigh   | 0          | 0          | 0          |   0.0 |  0.00
Comm    | 0          | 0          | 0          |   0.0 |  0.00
Output  | 0          | 0          | 0          |   0.0 |  0.00
Modify  | 0          | 0          | 0          |   0.0 |  0.00
Other   |            | 8.75e-07   |            |       |100.00

Nlocal:              4 ave           4 max           4 min
Histogram: 1 0 0 0 0 0 0 0 0 0
Nghost:            662 ave         662 max         662 min
Histogram: 1 0 0 0 0 0 0 0 0 0
Neighs:            280 ave         280 max         280 min
Histogram: 1 0 0 0 0 0 0 0 0 0

Total # of neighbors = 280
Ave neighs/atom = 70
Neighbor list builds = 0
Dangerous builds = 0
set atom * x 0.0 y 0.0 z 0.0
Setting atom values ...
  4 settings made for x
  4 settings made for y
  4 settings made for z
change_box all     x final 0 4.949109244318489 y final 0 4.949109244318489 z final 0 4.949109244318489      xy final 0.0 xz final 0.0 yz final 0.0 units box
Changing box ...
  triclinic box = (0 0 0) to (4.9491092 4.8996182 4.8996182) with tilt (0 0 0)
  triclinic box = (0 0 0) to (4.9491092 4.9491092 4.8996182) with tilt (0 0 0)
  triclinic box = (0 0 0) to (4.9491092 4.9491092 4.9491092) with tilt (0 0 0)
  triclinic box = (0 0 0) to (4.9491092 4.9491092 4.9491092) with tilt (0 0 0)
  triclinic box = (0 0 0) to (4.9491092 4.9491092 4.9491092) with tilt (0 0 0)
  triclinic box = (0 0 0) to (4.9491092 4.9491092 4.9491092) with tilt (0 0 0)
echo none
run 0
WARNING: No fixes with time integration, atoms won't move (src/src/verlet.cpp:60)
Per MPI rank memory allocation (min/avg/max) = 3.221 | 3.221 | 3.221 Mbytes
    PotEng          Pxx           E_mol          E_coul    
-8.079992       67.055313      0              0            
Loop time of 8.75e-07 on 1 procs for 0 steps with 4 atoms

114.3% CPU use with 1 MPI tasks x no OpenMP threads

MPI task timing breakdown:
Section |  min time  |  avg time  |  max time  |%varavg| %total
---------------------------------------------------------------
Pair    | 0          | 0          | 0          |   0.0 |  0.00
Neigh   | 0          | 0          | 0          |   0.0 |  0.00
Comm    | 0          | 0          | 0          |   0.0 |  0.00
Output  | 0          | 0          | 0          |   0.0 |  0.00
Modify  | 0          | 0          | 0          |   0.0 |  0.00
Other   |            | 8.75e-07   |            |       |100.00

Nlocal:              4 ave           4 max           4 min
Histogram: 1 0 0 0 0 0 0 0 0 0
Nghost:            360 ave         360 max         360 min
Histogram: 1 0 0 0 0 0 0 0 0 0
Neighs:            268 ave         268 max         268 min
Histogram: 1 0 0 0 0 0 0 0 0 0

Total # of neighbors = 268
Ave neighs/atom = 67
Neighbor list builds = 0
Dangerous builds = 0
set atom * x 0.0 y 0.0 z 0.0
Setting atom values ...
  4 settings made for x
  4 settings made for y
  4 settings made for z
change_box all     x final 0 4.998600336761675 y final 0 4.998600336761675 z final 0 4.998600336761675      xy final 0.0 xz final 0.0 yz final 0.0 units box
Changing box ...
  triclinic box = (0 0 0) to (4.9986003 4.9491092 4.9491092) with tilt (0 0 0)
  triclinic box = (0 0 0) to (4.9986003 4.9986003 4.9491092) with tilt (0 0 0)
  triclinic box = (0 0 0) to (4.9986003 4.9986003 4.9986003) with tilt (0 0 0)
  triclinic box = (0 0 0) to (4.9986003 4.9986003 4.9986003) with tilt (0 0 0)
  triclinic box = (0 0 0) to (4.9986003 4.9986003 4.9986003) with tilt (0 0 0)
  triclinic box = (0 0 0) to (4.9986003 4.9986003 4.9986003) with tilt (0 0 0)
echo none
run 0
WARNING: No fixes with time integration, atoms won't move (src/src/verlet.cpp:60)
Per MPI rank memory allocation (min/avg/max) = 3.221 | 3.221 | 3.221 Mbytes
    PotEng          Pxx           E_mol          E_coul    
-8.0655408     -12261.824      0              0            
Loop time of 1.041e-06 on 1 procs for 0 steps with 4 atoms

0.0% CPU use with 1 MPI tasks x no OpenMP threads

MPI task timing breakdown:
Section |  min time  |  avg time  |  max time  |%varavg| %total
---------------------------------------------------------------
Pair    | 0          | 0          | 0          |   0.0 |  0.00
Neigh   | 0          | 0          | 0          |   0.0 |  0.00
Comm    | 0          | 0          | 0          |   0.0 |  0.00
Output  | 0          | 0          | 0          |   0.0 |  0.00
Modify  | 0          | 0          | 0          |   0.0 |  0.00
Other   |            | 1.041e-06  |            |       |100.00

Nlocal:              4 ave           4 max           4 min
Histogram: 1 0 0 0 0 0 0 0 0 0
Nghost:            360 ave         360 max         360 min
Histogram: 1 0 0 0 0 0 0 0 0 0
Neighs:            268 ave         268 max         268 min
Histogram: 1 0 0 0 0 0 0 0 0 0

Total # of neighbors = 268
Ave neighs/atom = 67
Neighbor list builds = 0
Dangerous builds = 0
set atom * x 0.0 y 0.0 z 0.0
Setting atom values ...
  4 settings made for x
  4 settings made for y
  4 settings made for z
change_box all     x final 0 5.048091429204859 y final 0 5.048091429204859 z final 0 5.048091429204859      xy final 0.0 xz final 0.0 yz final 0.0 units box
Changing box ...
  triclinic box = (0 0 0) to (5.0480914 4.9986003 4.9986003) with tilt (0 0 0)
  triclinic box = (0 0 0) to (5.0480914 5.0480914 4.9986003) with tilt (0 0 0)
  triclinic box = (0 0 0) to (5.0480914 5.0480914 5.0480914) with tilt (0 0 0)
  triclinic box = (0 0 0) to (5.0480914 5.0480914 5.0480914) with tilt (0 0 0)
  triclinic box = (0 0 0) to (5.0480914 5.0480914 5.0480914) with tilt (0 0 0)
  triclinic box = (0 0 0) to (5.0480914 5.0480914 5.0480914) with tilt (0 0 0)
echo none
run 0
WARNING: No fixes with time integration, atoms won't move (src/src/verlet.cpp:60)
Per MPI rank memory allocation (min/avg/max) = 3.221 | 3.221 | 3.221 Mbytes
    PotEng          Pxx           E_mol          E_coul    
-8.0245218     -22438.303      0              0            
Loop time of 8.33e-07 on 1 procs for 0 steps with 4 atoms

240.1% CPU use with 1 MPI tasks x no OpenMP threads

MPI task timing breakdown:
Section |  min time  |  avg time  |  max time  |%varavg| %total
---------------------------------------------------------------
Pair    | 0          | 0          | 0          |   0.0 |  0.00
Neigh   | 0          | 0          | 0          |   0.0 |  0.00
Comm    | 0          | 0          | 0          |   0.0 |  0.00
Output  | 0          | 0          | 0          |   0.0 |  0.00
Modify  | 0          | 0          | 0          |   0.0 |  0.00
Other   |            | 8.33e-07   |            |       |100.00

Nlocal:              4 ave           4 max           4 min
Histogram: 1 0 0 0 0 0 0 0 0 0
Nghost:            360 ave         360 max         360 min
Histogram: 1 0 0 0 0 0 0 0 0 0
Neighs:            268 ave         268 max         268 min
Histogram: 1 0 0 0 0 0 0 0 0 0

Total # of neighbors = 268
Ave neighs/atom = 67
Neighbor list builds = 0
Dangerous builds = 0
set atom * x 0.0 y 0.0 z 0.0
Setting atom values ...
  4 settings made for x
  4 settings made for y
  4 settings made for z
change_box all     x final 0 5.097582521648045 y final 0 5.097582521648045 z final 0 5.097582521648045      xy final 0.0 xz final 0.0 yz final 0.0 units box
Changing box ...
  triclinic box = (0 0 0) to (5.0975825 5.0480914 5.0480914) with tilt (0 0 0)
  triclinic box = (0 0 0) to (5.0975825 5.0975825 5.0480914) with tilt (0 0 0)
  triclinic box = (0 0 0) to (5.0975825 5.0975825 5.0975825) with tilt (0 0 0)
  triclinic box = (0 0 0) to (5.0975825 5.0975825 5.0975825) with tilt (0 0 0)
  triclinic box = (0 0 0) to (5.0975825 5.0975825 5.0975825) with tilt (0 0 0)
  triclinic box = (0 0 0) to (5.0975825 5.0975825 5.0975825) with tilt (0 0 0)
echo none
run 0
WARNING: No fixes with time integration, atoms won't move (src/src/verlet.cpp:60)
Per MPI rank memory allocation (min/avg/max) = 3.221 | 3.221 | 3.221 Mbytes
    PotEng          Pxx           E_mol          E_coul    
-7.9608338     -30642.407      0              0            
Loop time of 9.58e-07 on 1 procs for 0 steps with 4 atoms

104.4% CPU use with 1 MPI tasks x no OpenMP threads

MPI task timing breakdown:
Section |  min time  |  avg time  |  max time  |%varavg| %total
---------------------------------------------------------------
Pair    | 0          | 0          | 0          |   0.0 |  0.00
Neigh   | 0          | 0          | 0          |   0.0 |  0.00
Comm    | 0          | 0          | 0          |   0.0 |  0.00
Output  | 0          | 0          | 0          |   0.0 |  0.00
Modify  | 0          | 0          | 0          |   0.0 |  0.00
Other   |            | 9.58e-07   |            |       |100.00

Nlocal:              4 ave           4 max           4 min
Histogram: 1 0 0 0 0 0 0 0 0 0
Nghost:            360 ave         360 max         360 min
Histogram: 1 0 0 0 0 0 0 0 0 0
Neighs:            268 ave         268 max         268 min
Histogram: 1 0 0 0 0 0 0 0 0 0

Total # of neighbors = 268
Ave neighs/atom = 67
Neighbor list builds = 0
Dangerous builds = 0
set atom * x 0.0 y 0.0 z 0.0
Setting atom values ...
  4 settings made for x
  4 settings made for y
  4 settings made for z
change_box all     x final 0 5.147073614091228 y final 0 5.147073614091228 z final 0 5.147073614091228      xy final 0.0 xz final 0.0 yz final 0.0 units box
Changing box ...
  triclinic box = (0 0 0) to (5.1470736 5.0975825 5.0975825) with tilt (0 0 0)
  triclinic box = (0 0 0) to (5.1470736 5.1470736 5.0975825) with tilt (0 0 0)
  triclinic box = (0 0 0) to (5.1470736 5.1470736 5.1470736) with tilt (0 0 0)
  triclinic box = (0 0 0) to (5.1470736 5.1470736 5.1470736) with tilt (0 0 0)
  triclinic box = (0 0 0) to (5.1470736 5.1470736 5.1470736) with tilt (0 0 0)
  triclinic box = (0 0 0) to (5.1470736 5.1470736 5.1470736) with tilt (0 0 0)
echo none
run 0
WARNING: No fixes with time integration, atoms won't move (src/src/verlet.cpp:60)
Per MPI rank memory allocation (min/avg/max) = 3.221 | 3.221 | 3.221 Mbytes
    PotEng          Pxx           E_mol          E_coul    
-7.8778781     -37359.483      0              0            
Loop time of 1.208e-06 on 1 procs for 0 steps with 4 atoms

82.8% CPU use with 1 MPI tasks x no OpenMP threads

MPI task timing breakdown:
Section |  min time  |  avg time  |  max time  |%varavg| %total
---------------------------------------------------------------
Pair    | 0          | 0          | 0          |   0.0 |  0.00
Neigh   | 0          | 0          | 0          |   0.0 |  0.00
Comm    | 0          | 0          | 0          |   0.0 |  0.00
Output  | 0          | 0          | 0          |   0.0 |  0.00
Modify  | 0          | 0          | 0          |   0.0 |  0.00
Other   |            | 1.208e-06  |            |       |100.00

Nlocal:              4 ave           4 max           4 min
Histogram: 1 0 0 0 0 0 0 0 0 0
Nghost:            360 ave         360 max         360 min
Histogram: 1 0 0 0 0 0 0 0 0 0
Neighs:            268 ave         268 max         268 min
Histogram: 1 0 0 0 0 0 0 0 0 0

Total # of neighbors = 268
Ave neighs/atom = 67
Neighbor list builds = 0
Dangerous builds = 0
set atom * x 0.0 y 0.0 z 0.0
Setting atom values ...
  4 settings made for x
  4 settings made for y
  4 settings made for z
change_box all     x final 0 5.1965647065344145 y final 0 5.1965647065344145 z final 0 5.1965647065344145      xy final 0.0 xz final 0.0 yz final 0.0 units box
Changing box ...
  triclinic box = (0 0 0) to (5.1965647 5.1470736 5.1470736) with tilt (0 0 0)
  triclinic box = (0 0 0) to (5.1965647 5.1965647 5.1470736) with tilt (0 0 0)
  triclinic box = (0 0 0) to (5.1965647 5.1965647 5.1965647) with tilt (0 0 0)
  triclinic box = (0 0 0) to (5.1965647 5.1965647 5.1965647) with tilt (0 0 0)
  triclinic box = (0 0 0) to (5.1965647 5.1965647 5.1965647) with tilt (0 0 0)
  triclinic box = (0 0 0) to (5.1965647 5.1965647 5.1965647) with tilt (0 0 0)
echo none
run 0
WARNING: No fixes with time integration, atoms won't move (src/src/verlet.cpp:60)
Per MPI rank memory allocation (min/avg/max) = 3.221 | 3.221 | 3.221 Mbytes
    PotEng          Pxx           E_mol          E_coul    
-7.7781455     -42916.873      0              0            
Loop time of 1.042e-06 on 1 procs for 0 steps with 4 atoms

191.9% CPU use with 1 MPI tasks x no OpenMP threads

MPI task timing breakdown:
Section |  min time  |  avg time  |  max time  |%varavg| %total
---------------------------------------------------------------
Pair    | 0          | 0          | 0          |   0.0 |  0.00
Neigh   | 0          | 0          | 0          |   0.0 |  0.00
Comm    | 0          | 0          | 0          |   0.0 |  0.00
Output  | 0          | 0          | 0          |   0.0 |  0.00
Modify  | 0          | 0          | 0          |   0.0 |  0.00
Other   |            | 1.042e-06  |            |       |100.00

Nlocal:              4 ave           4 max           4 min
Histogram: 1 0 0 0 0 0 0 0 0 0
Nghost:            360 ave         360 max         360 min
Histogram: 1 0 0 0 0 0 0 0 0 0
Neighs:            268 ave         268 max         268 min
Histogram: 1 0 0 0 0 0 0 0 0 0

Total # of neighbors = 268
Ave neighs/atom = 67
Neighbor list builds = 0
Dangerous builds = 0
set atom * x 0.0 y 0.0 z 0.0
Setting atom values ...
  4 settings made for x
  4 settings made for y
  4 settings made for z
change_box all     x final 0 5.246055798977599 y final 0 5.246055798977599 z final 0 5.246055798977599      xy final 0.0 xz final 0.0 yz final 0.0 units box
Changing box ...
  triclinic box = (0 0 0) to (5.2460558 5.1965647 5.1965647) with tilt (0 0 0)
  triclinic box = (0 0 0) to (5.2460558 5.2460558 5.1965647) with tilt (0 0 0)
  triclinic box = (0 0 0) to (5.2460558 5.2460558 5.2460558) with tilt (0 0 0)
  triclinic box = (0 0 0) to (5.2460558 5.2460558 5.2460558) with tilt (0 0 0)
  triclinic box = (0 0 0) to (5.2460558 5.2460558 5.2460558) with tilt (0 0 0)
  triclinic box = (0 0 0) to (5.2460558 5.2460558 5.2460558) with tilt (0 0 0)
echo none
run 0
WARNING: No fixes with time integration, atoms won't move (src/src/verlet.cpp:60)
Per MPI rank memory allocation (min/avg/max) = 3.221 | 3.221 | 3.221 Mbytes
    PotEng          Pxx           E_mol          E_coul    
-7.6637242     -47501.084      0              0            
Loop time of 7.92e-07 on 1 procs for 0 steps with 4 atoms

0.0% CPU use with 1 MPI tasks x no OpenMP threads

MPI task timing breakdown:
Section |  min time  |  avg time  |  max time  |%varavg| %total
---------------------------------------------------------------
Pair    | 0          | 0          | 0          |   0.0 |  0.00
Neigh   | 0          | 0          | 0          |   0.0 |  0.00
Comm    | 0          | 0          | 0          |   0.0 |  0.00
Output  | 0          | 0          | 0          |   0.0 |  0.00
Modify  | 0          | 0          | 0          |   0.0 |  0.00
Other   |            | 7.92e-07   |            |       |100.00

Nlocal:              4 ave           4 max           4 min
Histogram: 1 0 0 0 0 0 0 0 0 0
Nghost:            360 ave         360 max         360 min
Histogram: 1 0 0 0 0 0 0 0 0 0
Neighs:            268 ave         268 max         268 min
Histogram: 1 0 0 0 0 0 0 0 0 0

Total # of neighbors = 268
Ave neighs/atom = 67
Neighbor list builds = 0
Dangerous builds = 0
set atom * x 0.0 y 0.0 z 0.0
Setting atom values ...
  4 settings made for x
  4 settings made for y
  4 settings made for z
change_box all     x final 0 5.295546891420785 y final 0 5.295546891420785 z final 0 5.295546891420785      xy final 0.0 xz final 0.0 yz final 0.0 units box
Changing box ...
  triclinic box = (0 0 0) to (5.2955469 5.2460558 5.2460558) with tilt (0 0 0)
  triclinic box = (0 0 0) to (5.2955469 5.2955469 5.2460558) with tilt (0 0 0)
  triclinic box = (0 0 0) to (5.2955469 5.2955469 5.2955469) with tilt (0 0 0)
  triclinic box = (0 0 0) to (5.2955469 5.2955469 5.2955469) with tilt (0 0 0)
  triclinic box = (0 0 0) to (5.2955469 5.2955469 5.2955469) with tilt (0 0 0)
  triclinic box = (0 0 0) to (5.2955469 5.2955469 5.2955469) with tilt (0 0 0)
echo none
run 0
WARNING: No fixes with time integration, atoms won't move (src/src/verlet.cpp:60)
Per MPI rank memory allocation (min/avg/max) = 3.221 | 3.221 | 3.221 Mbytes
    PotEng          Pxx           E_mol          E_coul    
-7.5364144     -51259.692      0              0            
Loop time of 1.041e-06 on 1 procs for 0 steps with 4 atoms

0.0% CPU use with 1 MPI tasks x no OpenMP threads

MPI task timing breakdown:
Section |  min time  |  avg time  |  max time  |%varavg| %total
---------------------------------------------------------------
Pair    | 0          | 0          | 0          |   0.0 |  0.00
Neigh   | 0          | 0          | 0          |   0.0 |  0.00
Comm    | 0          | 0          | 0          |   0.0 |  0.00
Output  | 0          | 0          | 0          |   0.0 |  0.00
Modify  | 0          | 0          | 0          |   0.0 |  0.00
Other   |            | 1.041e-06  |            |       |100.00

Nlocal:              4 ave           4 max           4 min
Histogram: 1 0 0 0 0 0 0 0 0 0
Nghost:            360 ave         360 max         360 min
Histogram: 1 0 0 0 0 0 0 0 0 0
Neighs:            172 ave         172 max         172 min
Histogram: 1 0 0 0 0 0 0 0 0 0

Total # of neighbors = 172
Ave neighs/atom = 43
Neighbor list builds = 0
Dangerous builds = 0
set atom * x 0.0 y 0.0 z 0.0
Setting atom values ...
  4 settings made for x
  4 settings made for y
  4 settings made for z
change_box all     x final 0 5.3450379838639686 y final 0 5.3450379838639686 z final 0 5.3450379838639686      xy final 0.0 xz final 0.0 yz final 0.0 units box
Changing box ...
  triclinic box = (0 0 0) to (5.345038 5.2955469 5.2955469) with tilt (0 0 0)
  triclinic box = (0 0 0) to (5.345038 5.345038 5.2955469) with tilt (0 0 0)
  triclinic box = (0 0 0) to (5.345038 5.345038 5.345038) with tilt (0 0 0)
  triclinic box = (0 0 0) to (5.345038 5.345038 5.345038) with tilt (0 0 0)
  triclinic box = (0 0 0) to (5.345038 5.345038 5.345038) with tilt (0 0 0)
  triclinic box = (0 0 0) to (5.345038 5.345038 5.345038) with tilt (0 0 0)
echo none
run 0
WARNING: No fixes with time integration, atoms won't move (src/src/verlet.cpp:60)
Per MPI rank memory allocation (min/avg/max) = 3.221 | 3.221 | 3.221 Mbytes
    PotEng          Pxx           E_mol          E_coul    
-7.3978114     -54296.942      0              0            
Loop time of 7.91e-07 on 1 procs for 0 steps with 4 atoms

252.8% CPU use with 1 MPI tasks x no OpenMP threads

MPI task timing breakdown:
Section |  min time  |  avg time  |  max time  |%varavg| %total
---------------------------------------------------------------
Pair    | 0          | 0          | 0          |   0.0 |  0.00
Neigh   | 0          | 0          | 0          |   0.0 |  0.00
Comm    | 0          | 0          | 0          |   0.0 |  0.00
Output  | 0          | 0          | 0          |   0.0 |  0.00
Modify  | 0          | 0          | 0          |   0.0 |  0.00
Other   |            | 7.91e-07   |            |       |100.00

Nlocal:              4 ave           4 max           4 min
Histogram: 1 0 0 0 0 0 0 0 0 0
Nghost:            360 ave         360 max         360 min
Histogram: 1 0 0 0 0 0 0 0 0 0
Neighs:            172 ave         172 max         172 min
Histogram: 1 0 0 0 0 0 0 0 0 0

Total # of neighbors = 172
Ave neighs/atom = 43
Neighbor list builds = 0
Dangerous builds = 0
set atom * x 0.0 y 0.0 z 0.0
Setting atom values ...
  4 settings made for x
  4 settings made for y
  4 settings made for z
change_box all     x final 0 5.394529076307155 y final 0 5.394529076307155 z final 0 5.394529076307155      xy final 0.0 xz final 0.0 yz final 0.0 units box
Changing box ...
  triclinic box = (0 0 0) to (5.3945291 5.345038 5.345038) with tilt (0 0 0)
  triclinic box = (0 0 0) to (5.3945291 5.3945291 5.345038) with tilt (0 0 0)
  triclinic box = (0 0 0) to (5.3945291 5.3945291 5.3945291) with tilt (0 0 0)
  triclinic box = (0 0 0) to (5.3945291 5.3945291 5.3945291) with tilt (0 0 0)
  triclinic box = (0 0 0) to (5.3945291 5.3945291 5.3945291) with tilt (0 0 0)
  triclinic box = (0 0 0) to (5.3945291 5.3945291 5.3945291) with tilt (0 0 0)
echo none
run 0
WARNING: No fixes with time integration, atoms won't move (src/src/verlet.cpp:60)
Per MPI rank memory allocation (min/avg/max) = 3.221 | 3.221 | 3.221 Mbytes
    PotEng          Pxx           E_mol          E_coul    
-7.2493845     -56686.131      0              0            
Loop time of 8.33e-07 on 1 procs for 0 steps with 4 atoms

240.1% CPU use with 1 MPI tasks x no OpenMP threads

MPI task timing breakdown:
Section |  min time  |  avg time  |  max time  |%varavg| %total
---------------------------------------------------------------
Pair    | 0          | 0          | 0          |   0.0 |  0.00
Neigh   | 0          | 0          | 0          |   0.0 |  0.00
Comm    | 0          | 0          | 0          |   0.0 |  0.00
Output  | 0          | 0          | 0          |   0.0 |  0.00
Modify  | 0          | 0          | 0          |   0.0 |  0.00
Other   |            | 8.33e-07   |            |       |100.00

Nlocal:              4 ave           4 max           4 min
Histogram: 1 0 0 0 0 0 0 0 0 0
Nghost:            360 ave         360 max         360 min
Histogram: 1 0 0 0 0 0 0 0 0 0
Neighs:            172 ave         172 max         172 min
Histogram: 1 0 0 0 0 0 0 0 0 0

Total # of neighbors = 172
Ave neighs/atom = 43
Neighbor list builds = 0
Dangerous builds = 0
set atom * x 0.0 y 0.0 z 0.0
Setting atom values ...
  4 settings made for x
  4 settings made for y
  4 settings made for z
change_box all     x final 0 5.444020168750338 y final 0 5.444020168750338 z final 0 5.444020168750338      xy final 0.0 xz final 0.0 yz final 0.0 units box
Changing box ...
  triclinic box = (0 0 0) to (5.4440202 5.3945291 5.3945291) with tilt (0 0 0)
  triclinic box = (0 0 0) to (5.4440202 5.4440202 5.3945291) with tilt (0 0 0)
  triclinic box = (0 0 0) to (5.4440202 5.4440202 5.4440202) with tilt (0 0 0)
  triclinic box = (0 0 0) to (5.4440202 5.4440202 5.4440202) with tilt (0 0 0)
  triclinic box = (0 0 0) to (5.4440202 5.4440202 5.4440202) with tilt (0 0 0)
  triclinic box = (0 0 0) to (5.4440202 5.4440202 5.4440202) with tilt (0 0 0)
echo none
run 0
WARNING: No fixes with time integration, atoms won't move (src/src/verlet.cpp:60)
Per MPI rank memory allocation (min/avg/max) = 3.221 | 3.221 | 3.221 Mbytes
    PotEng          Pxx           E_mol          E_coul    
-7.0925247     -58485.039      0              0            
Loop time of 1.083e-06 on 1 procs for 0 steps with 4 atoms

92.3% CPU use with 1 MPI tasks x no OpenMP threads

MPI task timing breakdown:
Section |  min time  |  avg time  |  max time  |%varavg| %total
---------------------------------------------------------------
Pair    | 0          | 0          | 0          |   0.0 |  0.00
Neigh   | 0          | 0          | 0          |   0.0 |  0.00
Comm    | 0          | 0          | 0          |   0.0 |  0.00
Output  | 0          | 0          | 0          |   0.0 |  0.00
Modify  | 0          | 0          | 0          |   0.0 |  0.00
Other   |            | 1.083e-06  |            |       |100.00

Nlocal:              4 ave           4 max           4 min
Histogram: 1 0 0 0 0 0 0 0 0 0
Nghost:            360 ave         360 max         360 min
Histogram: 1 0 0 0 0 0 0 0 0 0
Neighs:            172 ave         172 max         172 min
Histogram: 1 0 0 0 0 0 0 0 0 0

Total # of neighbors = 172
Ave neighs/atom = 43
Neighbor list builds = 0
Dangerous builds = 0
set atom * x 0.0 y 0.0 z 0.0
Setting atom values ...
  4 settings made for x
  4 settings made for y
  4 settings made for z
change_box all     x final 0 14.847327732955467 y final 0 14.847327732955467 z final 0 14.847327732955467      xy final 0.0 xz final 0.0 yz final 0.0 units box
Changing box ...
  triclinic box = (0 0 0) to (14.847328 5.4440202 5.4440202) with tilt (0 0 0)
  triclinic box = (0 0 0) to (14.847328 14.847328 5.4440202) with tilt (0 0 0)
  triclinic box = (0 0 0) to (14.847328 14.847328 14.847328) with tilt (0 0 0)
  triclinic box = (0 0 0) to (14.847328 14.847328 14.847328) with tilt (0 0 0)
  triclinic box = (0 0 0) to (14.847328 14.847328 14.847328) with tilt (0 0 0)
  triclinic box = (0 0 0) to (14.847328 14.847328 14.847328) with tilt (0 0 0)
echo none
Created 104 atoms
  using lattice units in triclinic box = (0 0 0) to (14.847328 14.847328 14.847328) with tilt (0 0 0)
  create_atoms CPU = 0.000 seconds
Setting atom values ...
  1 settings made for type
Setting atom values ...
  1 settings made for type
Setting atom values ...
  1 settings made for type
Setting atom values ...
  1 settings made for type
Setting atom values ...
  1 settings made for type
Setting atom values ...
  1 settings made for type
Setting atom values ...
  1 settings made for type
Setting atom values ...
  1 settings made for type
Setting atom values ...
  1 settings made for type
Setting atom values ...
  1 settings made for type
Setting atom values ...
  1 settings made for type
Setting atom values ...
  1 settings made for type
Setting atom values ...
  1 settings made for type
Setting atom values ...
  1 settings made for type
Setting atom values ...
  1 settings made for type
Setting atom values ...
  1 settings made for type
Setting atom values ...
  1 settings made for type
Setting atom values ...
  1 settings made for type
Setting atom values ...
  1 settings made for type
Setting atom values ...
  1 settings made for type
Setting atom values ...
  1 settings made for type
Setting atom values ...
  1 settings made for type
Setting atom values ...
  1 settings made for type
Setting atom values ...
  1 settings made for type
Setting atom values ...
  1 settings made for type
Setting atom values ...
  1 settings made for type
Setting atom values ...
  1 settings made for type
Setting atom values ...
  1 settings made for type
Setting atom values ...
  1 settings made for type
Setting atom values ...
  1 settings made for type
Setting atom values ...
  1 settings made for type
Setting atom values ...
  1 settings made for type
Setting atom values ...
  1 settings made for type
Setting atom values ...
  1 settings made for type
Setting atom values ...
  1 settings made for type
Setting atom values ...
  1 settings made for type
Setting atom values ...
  1 settings made for type
Setting atom values ...
  1 settings made for type
Setting atom values ...
  1 settings made for type
Setting atom values ...
  1 settings made for type
Setting atom values ...
  1 settings made for type
Setting atom values ...
  1 settings made for type
Setting atom values ...
  1 settings made for type
Setting atom values ...
  1 settings made for type
Setting atom values ...
  1 settings made for type
Setting atom values ...
  1 settings made for type
Setting atom values ...
  1 settings made for type
Setting atom values ...
  1 settings made for type
Setting atom values ...
  1 settings made for type
Setting atom values ...
  1 settings made for type
Setting atom values ...
  1 settings made for type
Setting atom values ...
  1 settings made for type
Setting atom values ...
  1 settings made for type
Setting atom values ...
  1 settings made for type
Setting atom values ...
  1 settings made for type
Setting atom values ...
  1 settings made for type
Setting atom values ...
  1 settings made for type
Setting atom values ...
  1 settings made for type
Setting atom values ...
  1 settings made for type
Setting atom values ...
  1 settings made for type
Setting atom values ...
  1 settings made for type
Setting atom values ...
  1 settings made for type
Setting atom values ...
  1 settings made for type
Setting atom values ...
  1 settings made for type
Setting atom values ...
  1 settings made for type
Setting atom values ...
  1 settings made for type
Setting atom values ...
  1 settings made for type
Setting atom values ...
  1 settings made for type
Setting atom values ...
  1 settings made for type
Setting atom values ...
  1 settings made for type
Setting atom values ...
  1 settings made for type
Setting atom values ...
  1 settings made for type
Setting atom values ...
  1 settings made for type
Setting atom values ...
  1 settings made for type
Setting atom values ...
  1 settings made for type
Setting atom values ...
  1 settings made for type
Setting atom values ...
  1 settings made for type
Setting atom values ...
  1 settings made for type
Setting atom values ...
  1 settings made for type
Setting atom values ...
  1 settings made for type
Setting atom values ...
  1 settings made for type
Setting atom values ...
  1 settings made for type
Setting atom values ...
  1 settings made for type
Setting atom values ...
  1 settings made for type
Setting atom values ...
  1 settings made for type
Setting atom values ...
  1 settings made for type
Setting atom values ...
  1 settings made for type
Setting atom values ...
  1 settings made for type
Setting atom values ...
  1 settings made for type
Setting atom values ...
  1 settings made for type
Setting atom values ...
  1 settings made for type
Setting atom values ...
  1 settings made for type
Setting atom values ...
  1 settings made for type
Setting atom values ...
  1 settings made for type
Setting atom values ...
  1 settings made for type
Setting atom values ...
  1 settings made for type
Setting atom values ...
  1 settings made for type
Setting atom values ...
  1 settings made for type
Setting atom values ...
  1 settings made for type
Setting atom values ...
  1 settings made for type
Setting atom values ...
  1 settings made for type
Setting atom values ...
  1 settings made for type
Setting atom values ...
  1 settings made for type
Setting atom values ...
  1 settings made for type
run 0
WARNING: No fixes with time integration, atoms won't move (src/src/verlet.cpp:60)
Per MPI rank memory allocation (min/avg/max) = 3.233 | 3.233 | 3.233 Mbytes
    PotEng          Pxx           E_mol          E_coul    
-218.15978      67.055313      0              0            
Loop time of 1.084e-06 on 1 procs for 0 steps with 108 atoms

184.5% CPU use with 1 MPI tasks x no OpenMP threads

MPI task timing breakdown:
Section |  min time  |  avg time  |  max time  |%varavg| %total
---------------------------------------------------------------
Pair    | 0          | 0          | 0          |   0.0 |  0.00
Neigh   | 0          | 0          | 0          |   0.0 |  0.00
Comm    | 0          | 0          | 0          |   0.0 |  0.00
Output  | 0          | 0          | 0          |   0.0 |  0.00
Modify  | 0          | 0          | 0          |   0.0 |  0.00
Other   |            | 1.084e-06  |            |       |100.00

Nlocal:            108 ave         108 max         108 min
Histogram: 1 0 0 0 0 0 0 0 0 0
Nghost:            990 ave         990 max         990 min
Histogram: 1 0 0 0 0 0 0 0 0 0
Neighs:           7236 ave        7236 max        7236 min
Histogram: 1 0 0 0 0 0 0 0 0 0

Total # of neighbors = 7236
Ave neighs/atom = 67
Neighbor list builds = 0
Dangerous builds = 0
set atom * x 0.0 y 0.0 z 0.0
Setting atom values ...
  108 settings made for x
  108 settings made for y
  108 settings made for z
change_box all     x final 0 14.550381178296357 y final 0 14.847327732955467 z final 0 14.847327732955467      xy final 0.0 xz final 0.0 yz final 0.0 units box
Changing box ...
  triclinic box = (0 0 0) to (14.550381 14.847328 14.847328) with tilt (0 0 0)
  triclinic box = (0 0 0) to (14.550381 14.847328 14.847328) with tilt (0 0 0)
  triclinic box = (0 0 0) to (14.550381 14.847328 14.847328) with tilt (0 0 0)
  triclinic box = (0 0 0) to (14.550381 14.847328 14.847328) with tilt (0 0 0)
  triclinic box = (0 0 0) to (14.550381 14.847328 14.847328) with tilt (0 0 0)
  triclinic box = (0 0 0) to (14.550381 14.847328 14.847328) with tilt (0 0 0)
echo none
run 0
WARNING: No fixes with time integration, atoms won't move (src/src/verlet.cpp:60)
Per MPI rank memory allocation (min/avg/max) = 3.239 | 3.239 | 3.239 Mbytes
    PotEng          Pxx           E_mol          E_coul    
-217.94393      10751.676      0              0            
Loop time of 1.084e-06 on 1 procs for 0 steps with 108 atoms

92.3% CPU use with 1 MPI tasks x no OpenMP threads

MPI task timing breakdown:
Section |  min time  |  avg time  |  max time  |%varavg| %total
---------------------------------------------------------------
Pair    | 0          | 0          | 0          |   0.0 |  0.00
Neigh   | 0          | 0          | 0          |   0.0 |  0.00
Comm    | 0          | 0          | 0          |   0.0 |  0.00
Output  | 0          | 0          | 0          |   0.0 |  0.00
Modify  | 0          | 0          | 0          |   0.0 |  0.00
Other   |            | 1.084e-06  |            |       |100.00

Nlocal:            108 ave         108 max         108 min
Histogram: 1 0 0 0 0 0 0 0 0 0
Nghost:           1160 ave        1160 max        1160 min
Histogram: 1 0 0 0 0 0 0 0 0 0
Neighs:           7344 ave        7344 max        7344 min
Histogram: 1 0 0 0 0 0 0 0 0 0

Total # of neighbors = 7344
Ave neighs/atom = 68
Neighbor list builds = 0
Dangerous builds = 0
set atom * x 0.0 y 0.0 z 0.0
Setting atom values ...
  108 settings made for x
  108 settings made for y
  108 settings made for z
change_box all     x final 0 14.698854455625913 y final 0 14.847327732955467 z final 0 14.847327732955467      xy final 0.0 xz final 0.0 yz final 0.0 units box
Changing box ...
  triclinic box = (0 0 0) to (14.698854 14.847328 14.847328) with tilt (0 0 0)
  triclinic box = (0 0 0) to (14.698854 14.847328 14.847328) with tilt (0 0 0)
  triclinic box = (0 0 0) to (14.698854 14.847328 14.847328) with tilt (0 0 0)
  triclinic box = (0 0 0) to (14.698854 14.847328 14.847328) with tilt (0 0 0)
  triclinic box = (0 0 0) to (14.698854 14.847328 14.847328) with tilt (0 0 0)
  triclinic box = (0 0 0) to (14.698854 14.847328 14.847328) with tilt (0 0 0)
echo none
run 0
WARNING: No fixes with time integration, atoms won't move (src/src/verlet.cpp:60)
Per MPI rank memory allocation (min/avg/max) = 3.239 | 3.239 | 3.239 Mbytes
    PotEng          Pxx           E_mol          E_coul    
-218.10643      5220.2068      0              0            
Loop time of 1.208e-06 on 1 procs for 0 steps with 108 atoms

0.0% CPU use with 1 MPI tasks x no OpenMP threads

MPI task timing breakdown:
Section |  min time  |  avg time  |  max time  |%varavg| %total
---------------------------------------------------------------
Pair    | 0          | 0          | 0          |   0.0 |  0.00
Neigh   | 0          | 0          | 0          |   0.0 |  0.00
Comm    | 0          | 0          | 0          |   0.0 |  0.00
Output  | 0          | 0          | 0          |   0.0 |  0.00
Modify  | 0          | 0          | 0          |   0.0 |  0.00
Other   |            | 1.208e-06  |            |       |100.00

Nlocal:            108 ave         108 max         108 min
Histogram: 1 0 0 0 0 0 0 0 0 0
Nghost:           1160 ave        1160 max        1160 min
Histogram: 1 0 0 0 0 0 0 0 0 0
Neighs:           7344 ave        7344 max        7344 min
Histogram: 1 0 0 0 0 0 0 0 0 0

Total # of neighbors = 7344
Ave neighs/atom = 68
Neighbor list builds = 0
Dangerous builds = 0
set atom * x 0.0 y 0.0 z 0.0
Setting atom values ...
  108 settings made for x
  108 settings made for y
  108 settings made for z
change_box all     x final 0 14.847327732955467 y final 0 14.847327732955467 z final 0 14.847327732955467      xy final 0.0 xz final 0.0 yz final 0.0 units box
Changing box ...
  triclinic box = (0 0 0) to (14.847328 14.847328 14.847328) with tilt (0 0 0)
  triclinic box = (0 0 0) to (14.847328 14.847328 14.847328) with tilt (0 0 0)
  triclinic box = (0 0 0) to (14.847328 14.847328 14.847328) with tilt (0 0 0)
  triclinic box = (0 0 0) to (14.847328 14.847328 14.847328) with tilt (0 0 0)
  triclinic box = (0 0 0) to (14.847328 14.847328 14.847328) with tilt (0 0 0)
  triclinic box = (0 0 0) to (14.847328 14.847328 14.847328) with tilt (0 0 0)
echo none
run 0
WARNING: No fixes with time integration, atoms won't move (src/src/verlet.cpp:60)
Per MPI rank memory allocation (min/avg/max) = 3.239 | 3.239 | 3.239 Mbytes
    PotEng          Pxx           E_mol          E_coul    
-218.15978      67.055313      0              0            
Loop time of 8.33e-07 on 1 procs for 0 steps with 108 atoms

120.0% CPU use with 1 MPI tasks x no OpenMP threads

MPI task timing breakdown:
Section |  min time  |  avg time  |  max time  |%varavg| %total
---------------------------------------------------------------
Pair    | 0          | 0          | 0          |   0.0 |  0.00
Neigh   | 0          | 0          | 0          |   0.0 |  0.00
Comm    | 0          | 0          | 0          |   0.0 |  0.00
Output  | 0          | 0          | 0          |   0.0 |  0.00
Modify  | 0          | 0          | 0          |   0.0 |  0.00
Other   |            | 8.33e-07   |            |       |100.00

Nlocal:            108 ave         108 max         108 min
Histogram: 1 0 0 0 0 0 0 0 0 0
Nghost:            990 ave         990 max         990 min
Histogram: 1 0 0 0 0 0 0 0 0 0
Neighs:           7236 ave        7236 max        7236 min
Histogram: 1 0 0 0 0 0 0 0 0 0

Total # of neighbors = 7236
Ave neighs/atom = 67
Neighbor list builds = 0
Dangerous builds = 0
set atom * x 0.0 y 0.0 z 0.0
Setting atom values ...
  108 settings made for x
  108 settings made for y
  108 settings made for z
change_box all     x final 0 14.995801010285021 y final 0 14.847327732955467 z final 0 14.847327732955467      xy final 0.0 xz final 0.0 yz final 0.0 units box
Changing box ...
  triclinic box = (0 0 0) to (14.995801 14.847328 14.847328) with tilt (0 0 0)
  triclinic box = (0 0 0) to (14.995801 14.847328 14.847328) with tilt (0 0 0)
  triclinic box = (0 0 0) to (14.995801 14.847328 14.847328) with tilt (0 0 0)
  triclinic box = (0 0 0) to (14.995801 14.847328 14.847328) with tilt (0 0 0)
  triclinic box = (0 0 0) to (14.995801 14.847328 14.847328) with tilt (0 0 0)
  triclinic box = (0 0 0) to (14.995801 14.847328 14.847328) with tilt (0 0 0)
echo none
run 0
WARNING: No fixes with time integration, atoms won't move (src/src/verlet.cpp:60)
Per MPI rank memory allocation (min/avg/max) = 3.239 | 3.239 | 3.239 Mbytes
    PotEng          Pxx           E_mol          E_coul    
-218.11171     -4696.0166      0              0            
Loop time of 1.084e-06 on 1 procs for 0 steps with 108 atoms

276.8% CPU use with 1 MPI tasks x no OpenMP threads

MPI task timing breakdown:
Section |  min time  |  avg time  |  max time  |%varavg| %total
---------------------------------------------------------------
Pair    | 0          | 0          | 0          |   0.0 |  0.00
Neigh   | 0          | 0          | 0          |   0.0 |  0.00
Comm    | 0          | 0          | 0          |   0.0 |  0.00
Output  | 0          | 0          | 0          |   0.0 |  0.00
Modify  | 0          | 0          | 0          |   0.0 |  0.00
Other   |            | 1.084e-06  |            |       |100.00

Nlocal:            108 ave         108 max         108 min
Histogram: 1 0 0 0 0 0 0 0 0 0
Nghost:            990 ave         990 max         990 min
Histogram: 1 0 0 0 0 0 0 0 0 0
Neighs:           7236 ave        7236 max        7236 min
Histogram: 1 0 0 0 0 0 0 0 0 0

Total # of neighbors = 7236
Ave neighs/atom = 67
Neighbor list builds = 0
Dangerous builds = 0
set atom * x 0.0 y 0.0 z 0.0
Setting atom values ...
  108 settings made for x
  108 settings made for y
  108 settings made for z
change_box all     x final 0 15.144274287614577 y final 0 14.847327732955467 z final 0 14.847327732955467      xy final 0.0 xz final 0.0 yz final 0.0 units box
Changing box ...
  triclinic box = (0 0 0) to (15.144274 14.847328 14.847328) with tilt (0 0 0)
  triclinic box = (0 0 0) to (15.144274 14.847328 14.847328) with tilt (0 0 0)
  triclinic box = (0 0 0) to (15.144274 14.847328 14.847328) with tilt (0 0 0)
  triclinic box = (0 0 0) to (15.144274 14.847328 14.847328) with tilt (0 0 0)
  triclinic box = (0 0 0) to (15.144274 14.847328 14.847328) with tilt (0 0 0)
  triclinic box = (0 0 0) to (15.144274 14.847328 14.847328) with tilt (0 0 0)
echo none
run 0
WARNING: No fixes with time integration, atoms won't move (src/src/verlet.cpp:60)
Per MPI rank memory allocation (min/avg/max) = 3.239 | 3.239 | 3.239 Mbytes
    PotEng          Pxx           E_mol          E_coul    
-217.97042     -9072.3237      0              0            
Loop time of 1.167e-06 on 1 procs for 0 steps with 108 atoms

85.7% CPU use with 1 MPI tasks x no OpenMP threads

MPI task timing breakdown:
Section |  min time  |  avg time  |  max time  |%varavg| %total
---------------------------------------------------------------
Pair    | 0          | 0          | 0          |   0.0 |  0.00
Neigh   | 0          | 0          | 0          |   0.0 |  0.00
Comm    | 0          | 0          | 0          |   0.0 |  0.00
Output  | 0          | 0          | 0          |   0.0 |  0.00
Modify  | 0          | 0          | 0          |   0.0 |  0.00
Other   |            | 1.167e-06  |            |       |100.00

Nlocal:            108 ave         108 max         108 min
Histogram: 1 0 0 0 0 0 0 0 0 0
Nghost:            990 ave         990 max         990 min
Histogram: 1 0 0 0 0 0 0 0 0 0
Neighs:           7236 ave        7236 max        7236 min
Histogram: 1 0 0 0 0 0 0 0 0 0

Total # of neighbors = 7236
Ave neighs/atom = 67
Neighbor list builds = 0
Dangerous builds = 0
set atom * x 0.0 y 0.0 z 0.0
Setting atom values ...
  108 settings made for x
  108 settings made for y
  108 settings made for z
change_box all     x final 0 14.847327732955467 y final 0 14.847357427581239 z final 0 14.847298038389086      xy final 0.0 xz final 0.0 yz final 0.029694596076778167 units box
Changing box ...
  triclinic box = (0 0 0) to (14.847328 14.847328 14.847328) with tilt (0 0 0)
  triclinic box = (0 0 0) to (14.847328 14.847357 14.847328) with tilt (0 0 0)
  triclinic box = (0 0 0) to (14.847328 14.847357 14.847298) with tilt (0 0 0)
  triclinic box = (0 0 0) to (14.847328 14.847357 14.847298) with tilt (0 0 0)
  triclinic box = (0 0 0) to (14.847328 14.847357 14.847298) with tilt (0 0 0)
  triclinic box = (0 0 0) to (14.847328 14.847357 14.847298) with tilt (0 0 0.029694596)
echo none
run 0
WARNING: No fixes with time integration, atoms won't move (src/src/verlet.cpp:60)
Per MPI rank memory allocation (min/avg/max) = 3.239 | 3.239 | 3.239 Mbytes
    PotEng          Pxx           E_mol          E_coul    
-218.15914      67.418176      0              0            
Loop time of 8.75e-07 on 1 procs for 0 steps with 108 atoms

0.0% CPU use with 1 MPI tasks x no OpenMP threads

MPI task timing breakdown:
Section |  min time  |  avg time  |  max time  |%varavg| %total
---------------------------------------------------------------
Pair    | 0          | 0          | 0          |   0.0 |  0.00
Neigh   | 0          | 0          | 0          |   0.0 |  0.00
Comm    | 0          | 0          | 0          |   0.0 |  0.00
Output  | 0          | 0          | 0          |   0.0 |  0.00
Modify  | 0          | 0          | 0          |   0.0 |  0.00
Other   |            | 8.75e-07   |            |       |100.00

Nlocal:            108 ave         108 max         108 min
Histogram: 1 0 0 0 0 0 0 0 0 0
Nghost:            990 ave         990 max         990 min
Histogram: 1 0 0 0 0 0 0 0 0 0
Neighs:           7236 ave        7236 max        7236 min
Histogram: 1 0 0 0 0 0 0 0 0 0

Total # of neighbors = 7236
Ave neighs/atom = 67
Neighbor list builds = 0
Dangerous builds = 0
set atom * x 0.0 y 0.0 z 0.0
Setting atom values ...
  108 settings made for x
  108 settings made for y
  108 settings made for z
change_box all     x final 0 14.847327732955467 y final 0 14.847641379440969 z final 0 14.847014093095536      xy final 0.0 xz final 0.0 yz final 0.09650559160512098 units box
Changing box ...
  triclinic box = (0 0 0) to (14.847328 14.847357 14.847298) with tilt (0 0 0.029694596)
  triclinic box = (0 0 0) to (14.847328 14.847641 14.847298) with tilt (0 0 0.029694596)
  triclinic box = (0 0 0) to (14.847328 14.847641 14.847014) with tilt (0 0 0.029694596)
  triclinic box = (0 0 0) to (14.847328 14.847641 14.847014) with tilt (0 0 0.029694596)
  triclinic box = (0 0 0) to (14.847328 14.847641 14.847014) with tilt (0 0 0.029694596)
  triclinic box = (0 0 0) to (14.847328 14.847641 14.847014) with tilt (0 0 0.096505592)
echo none
run 0
[...]
echo none
run 0
Per MPI rank memory allocation (min/avg/max) = 3.321 | 3.321 | 3.321 Mbytes
    PotEng          Pxx           E_mol          E_coul    
-311.28507     -548.36244      0              0            
Loop time of 8.33e-07 on 1 procs for 0 steps with 160 atoms

240.1% CPU use with 1 MPI tasks x no OpenMP threads

MPI task timing breakdown:
Section |  min time  |  avg time  |  max time  |%varavg| %total
---------------------------------------------------------------
Pair    | 0          | 0          | 0          |   0.0 |  0.00
Neigh   | 0          | 0          | 0          |   0.0 |  0.00
Comm    | 0          | 0          | 0          |   0.0 |  0.00
Output  | 0          | 0          | 0          |   0.0 |  0.00
Modify  | 0          | 0          | 0          |   0.0 |  0.00
Other   |            | 8.33e-07   |            |       |100.00

Nlocal:            160 ave         160 max         160 min
Histogram: 1 0 0 0 0 0 0 0 0 0
Nghost:            820 ave         820 max         820 min
Histogram: 1 0 0 0 0 0 0 0 0 0
Neighs:           8896 ave        8896 max        8896 min
Histogram: 1 0 0 0 0 0 0 0 0 0

Total # of neighbors = 8896
Ave neighs/atom = 55.6
Neighbor list builds = 0
Dangerous builds = 0
set atom * x 0.0 y 0.0 z 0.0
Setting atom values ...
  160 settings made for x
  160 settings made for y
  160 settings made for z
change_box all     x final 0 13.841005812792035 y final 0 16.951700884118114 z final 0 38.75429782876577      xy final -13.841005812792034 xz final 0.0 yz final 0.0 units box
Changing box ...
  triclinic box = (0 0 0) to (13.841006 16.954222 38.760062) with tilt (-13.843064 0 0)
  triclinic box = (0 0 0) to (13.841006 16.951701 38.760062) with tilt (-13.843064 0 0)
  triclinic box = (0 0 0) to (13.841006 16.951701 38.754298) with tilt (-13.843064 0 0)
  triclinic box = (0 0 0) to (13.841006 16.951701 38.754298) with tilt (-13.841006 0 0)
  triclinic box = (0 0 0) to (13.841006 16.951701 38.754298) with tilt (-13.841006 0 0)
  triclinic box = (0 0 0) to (13.841006 16.951701 38.754298) with tilt (-13.841006 0 0)
echo none
run 0
Per MPI rank memory allocation (min/avg/max) = 3.321 | 3.321 | 3.321 Mbytes
    PotEng          Pxx           E_mol          E_coul    
-311.2863      -585.66084      0              0            
Loop time of 8.75e-07 on 1 procs for 0 steps with 160 atoms

114.3% CPU use with 1 MPI tasks x no OpenMP threads

MPI task timing breakdown:
Section |  min time  |  avg time  |  max time  |%varavg| %total
---------------------------------------------------------------
Pair    | 0          | 0          | 0          |   0.0 |  0.00
Neigh   | 0          | 0          | 0          |   0.0 |  0.00
Comm    | 0          | 0          | 0          |   0.0 |  0.00
Output  | 0          | 0          | 0          |   0.0 |  0.00
Modify  | 0          | 0          | 0          |   0.0 |  0.00
Other   |            | 8.75e-07   |            |       |100.00

Nlocal:            160 ave         160 max         160 min
Histogram: 1 0 0 0 0 0 0 0 0 0
Nghost:            820 ave         820 max         820 min
Histogram: 1 0 0 0 0 0 0 0 0 0
Neighs:           8960 ave        8960 max        8960 min
Histogram: 1 0 0 0 0 0 0 0 0 0

Total # of neighbors = 8960
Ave neighs/atom = 56
Neighbor list builds = 0
Dangerous builds = 0
set atom * x 0.0 y 0.0 z 0.0
Setting atom values ...
  160 settings made for x
  160 settings made for y
  160 settings made for z
change_box all     x final 0 13.841005812792035 y final 0 16.951700884118114 z final 0 38.75429782876577      xy final -13.841005812792034 xz final 0.0 yz final 0.0 units box
Changing box ...
  triclinic box = (0 0 0) to (13.841006 16.951701 38.754298) with tilt (-13.841006 0 0)
  triclinic box = (0 0 0) to (13.841006 16.951701 38.754298) with tilt (-13.841006 0 0)
  triclinic box = (0 0 0) to (13.841006 16.951701 38.754298) with tilt (-13.841006 0 0)
  triclinic box = (0 0 0) to (13.841006 16.951701 38.754298) with tilt (-13.841006 0 0)
  triclinic box = (0 0 0) to (13.841006 16.951701 38.754298) with tilt (-13.841006 0 0)
  triclinic box = (0 0 0) to (13.841006 16.951701 38.754298) with tilt (-13.841006 0 0)
echo none
run 0
Per MPI rank memory allocation (min/avg/max) = 3.321 | 3.321 | 3.321 Mbytes
    PotEng          Pxx           E_mol          E_coul    
-311.2863      -585.66084      0              0            
Loop time of 7.08e-07 on 1 procs for 0 steps with 160 atoms

141.2% CPU use with 1 MPI tasks x no OpenMP threads

MPI task timing breakdown:
Section |  min time  |  avg time  |  max time  |%varavg| %total
---------------------------------------------------------------
Pair    | 0          | 0          | 0          |   0.0 |  0.00
Neigh   | 0          | 0          | 0          |   0.0 |  0.00
Comm    | 0          | 0          | 0          |   0.0 |  0.00
Output  | 0          | 0          | 0          |   0.0 |  0.00
Modify  | 0          | 0          | 0          |   0.0 |  0.00
Other   |            | 7.08e-07   |            |       |100.00

Nlocal:            160 ave         160 max         160 min
Histogram: 1 0 0 0 0 0 0 0 0 0
Nghost:            820 ave         820 max         820 min
Histogram: 1 0 0 0 0 0 0 0 0 0
Neighs:           8960 ave        8960 max        8960 min
Histogram: 1 0 0 0 0 0 0 0 0 0

Total # of neighbors = 8960
Ave neighs/atom = 56
Neighbor list builds = 0
Dangerous builds = 0
set atom * x 0.0 y 0.0 z 0.0
Setting atom values ...
  160 settings made for x
  160 settings made for y
  160 settings made for z
change_box all     x final 0 13.840197713734304 y final 0 16.950711168941577 z final 0 38.752035181673335      xy final -13.840197713734302 xz final 0.0 yz final 0.0 units box
Changing box ...
  triclinic box = (0 0 0) to (13.840198 16.951701 38.754298) with tilt (-13.841006 0 0)
  triclinic box = (0 0 0) to (13.840198 16.950711 38.754298) with tilt (-13.841006 0 0)
  triclinic box = (0 0 0) to (13.840198 16.950711 38.752035) with tilt (-13.841006 0 0)
  triclinic box = (0 0 0) to (13.840198 16.950711 38.752035) with tilt (-13.840198 0 0)
  triclinic box = (0 0 0) to (13.840198 16.950711 38.752035) with tilt (-13.840198 0 0)
  triclinic box = (0 0 0) to (13.840198 16.950711 38.752035) with tilt (-13.840198 0 0)
echo none
run 0
Per MPI rank memory allocation (min/avg/max) = 3.321 | 3.321 | 3.321 Mbytes
    PotEng          Pxx           E_mol          E_coul    
-311.28688     -587.02965      0              0            
Loop time of 7.08e-07 on 1 procs for 0 steps with 160 atoms

0.0% CPU use with 1 MPI tasks x no OpenMP threads

MPI task timing breakdown:
Section |  min time  |  avg time  |  max time  |%varavg| %total
---------------------------------------------------------------
Pair    | 0          | 0          | 0          |   0.0 |  0.00
Neigh   | 0          | 0          | 0          |   0.0 |  0.00
Comm    | 0          | 0          | 0          |   0.0 |  0.00
Output  | 0          | 0          | 0          |   0.0 |  0.00
Modify  | 0          | 0          | 0          |   0.0 |  0.00
Other   |            | 7.08e-07   |            |       |100.00

Nlocal:            160 ave         160 max         160 min
Histogram: 1 0 0 0 0 0 0 0 0 0
Nghost:            820 ave         820 max         820 min
Histogram: 1 0 0 0 0 0 0 0 0 0
Neighs:           8960 ave        8960 max        8960 min
Histogram: 1 0 0 0 0 0 0 0 0 0

Total # of neighbors = 8960
Ave neighs/atom = 56
Neighbor list builds = 0
Dangerous builds = 0
set atom * x 0.0 y 0.0 z 0.0
Setting atom values ...
  160 settings made for x
  160 settings made for y
  160 settings made for z
change_box all     x final 0 13.840197713734304 y final 0 16.950711168941577 z final 0 38.752035181673335      xy final -13.840197713734302 xz final 0.0 yz final 0.0 units box
Changing box ...
  triclinic box = (0 0 0) to (13.840198 16.950711 38.752035) with tilt (-13.840198 0 0)
  triclinic box = (0 0 0) to (13.840198 16.950711 38.752035) with tilt (-13.840198 0 0)
  triclinic box = (0 0 0) to (13.840198 16.950711 38.752035) with tilt (-13.840198 0 0)
  triclinic box = (0 0 0) to (13.840198 16.950711 38.752035) with tilt (-13.840198 0 0)
  triclinic box = (0 0 0) to (13.840198 16.950711 38.752035) with tilt (-13.840198 0 0)
  triclinic box = (0 0 0) to (13.840198 16.950711 38.752035) with tilt (-13.840198 0 0)
echo none
run 0
Per MPI rank memory allocation (min/avg/max) = 3.321 | 3.321 | 3.321 Mbytes
    PotEng          Pxx           E_mol          E_coul    
-311.28688     -587.02965      0              0            
Loop time of 1.125e-06 on 1 procs for 0 steps with 160 atoms

88.9% CPU use with 1 MPI tasks x no OpenMP threads

MPI task timing breakdown:
Section |  min time  |  avg time  |  max time  |%varavg| %total
---------------------------------------------------------------
Pair    | 0          | 0          | 0          |   0.0 |  0.00
Neigh   | 0          | 0          | 0          |   0.0 |  0.00
Comm    | 0          | 0          | 0          |   0.0 |  0.00
Output  | 0          | 0          | 0          |   0.0 |  0.00
Modify  | 0          | 0          | 0          |   0.0 |  0.00
Other   |            | 1.125e-06  |            |       |100.00

Nlocal:            160 ave         160 max         160 min
Histogram: 1 0 0 0 0 0 0 0 0 0
Nghost:            820 ave         820 max         820 min
Histogram: 1 0 0 0 0 0 0 0 0 0
Neighs:           8960 ave        8960 max        8960 min
Histogram: 1 0 0 0 0 0 0 0 0 0

Total # of neighbors = 8960
Ave neighs/atom = 56
Neighbor list builds = 0
Dangerous builds = 0
set atom * x 0.0 y 0.0 z 0.0
Setting atom values ...
  160 settings made for x
  160 settings made for y
  160 settings made for z
change_box all     x final 0 13.83989489663613 y final 0 16.950340295253618 z final 0 38.75118730514116      xy final -13.839894896636128 xz final 0.0 yz final 0.0 units box
Changing box ...
  triclinic box = (0 0 0) to (13.839895 16.950711 38.752035) with tilt (-13.840198 0 0)
  triclinic box = (0 0 0) to (13.839895 16.95034 38.752035) with tilt (-13.840198 0 0)
  triclinic box = (0 0 0) to (13.839895 16.95034 38.751187) with tilt (-13.840198 0 0)
  triclinic box = (0 0 0) to (13.839895 16.95034 38.751187) with tilt (-13.839895 0 0)
  triclinic box = (0 0 0) to (13.839895 16.95034 38.751187) with tilt (-13.839895 0 0)
  triclinic box = (0 0 0) to (13.839895 16.95034 38.751187) with tilt (-13.839895 0 0)
echo none
run 0
Per MPI rank memory allocation (min/avg/max) = 3.321 | 3.321 | 3.321 Mbytes
    PotEng          Pxx           E_mol          E_coul    
-311.28718     -585.5049       0              0            
Loop time of 1.042e-06 on 1 procs for 0 steps with 160 atoms

191.9% CPU use with 1 MPI tasks x no OpenMP threads

MPI task timing breakdown:
Section |  min time  |  avg time  |  max time  |%varavg| %total
---------------------------------------------------------------
Pair    | 0          | 0          | 0          |   0.0 |  0.00
Neigh   | 0          | 0          | 0          |   0.0 |  0.00
Comm    | 0          | 0          | 0          |   0.0 |  0.00
Output  | 0          | 0          | 0          |   0.0 |  0.00
Modify  | 0          | 0          | 0          |   0.0 |  0.00
Other   |            | 1.042e-06  |            |       |100.00

Nlocal:            160 ave         160 max         160 min
Histogram: 1 0 0 0 0 0 0 0 0 0
Nghost:            820 ave         820 max         820 min
Histogram: 1 0 0 0 0 0 0 0 0 0
Neighs:           8960 ave        8960 max        8960 min
Histogram: 1 0 0 0 0 0 0 0 0 0

Total # of neighbors = 8960
Ave neighs/atom = 56
Neighbor list builds = 0
Dangerous builds = 0
set atom * x 0.0 y 0.0 z 0.0
Setting atom values ...
  160 settings made for x
  160 settings made for y
  160 settings made for z
change_box all     x final 0 13.839519371590212 y final 0 16.949880372879548 z final 0 38.75013584907874      xy final -13.83951937159021 xz final 0.0 yz final 0.0 units box
Changing box ...
  triclinic box = (0 0 0) to (13.839519 16.95034 38.751187) with tilt (-13.839895 0 0)
  triclinic box = (0 0 0) to (13.839519 16.94988 38.751187) with tilt (-13.839895 0 0)
  triclinic box = (0 0 0) to (13.839519 16.94988 38.750136) with tilt (-13.839895 0 0)
  triclinic box = (0 0 0) to (13.839519 16.94988 38.750136) with tilt (-13.839519 0 0)
  triclinic box = (0 0 0) to (13.839519 16.94988 38.750136) with tilt (-13.839519 0 0)
  triclinic box = (0 0 0) to (13.839519 16.94988 38.750136) with tilt (-13.839519 0 0)
echo none
run 0
Per MPI rank memory allocation (min/avg/max) = 3.321 | 3.321 | 3.321 Mbytes
    PotEng          Pxx           E_mol          E_coul    
-311.28731     -583.42163      0              0            
Loop time of 1.041e-06 on 1 procs for 0 steps with 160 atoms

96.1% CPU use with 1 MPI tasks x no OpenMP threads

MPI task timing breakdown:
Section |  min time  |  avg time  |  max time  |%varavg| %total
---------------------------------------------------------------
Pair    | 0          | 0          | 0          |   0.0 |  0.00
Neigh   | 0          | 0          | 0          |   0.0 |  0.00
Comm    | 0          | 0          | 0          |   0.0 |  0.00
Output  | 0          | 0          | 0          |   0.0 |  0.00
Modify  | 0          | 0          | 0          |   0.0 |  0.00
Other   |            | 1.041e-06  |            |       |100.00

Nlocal:            160 ave         160 max         160 min
Histogram: 1 0 0 0 0 0 0 0 0 0
Nghost:            820 ave         820 max         820 min
Histogram: 1 0 0 0 0 0 0 0 0 0
Neighs:           8992 ave        8992 max        8992 min
Histogram: 1 0 0 0 0 0 0 0 0 0

Total # of neighbors = 8992
Ave neighs/atom = 56.2
Neighbor list builds = 0
Dangerous builds = 0
set atom * x 0.0 y 0.0 z 0.0
Setting atom values ...
  160 settings made for x
  160 settings made for y
  160 settings made for z
change_box all     x final 0 13.839519371590212 y final 0 16.949880372879548 z final 0 38.75013584907874      xy final -13.83951937159021 xz final 0.0 yz final 0.0 units box
Changing box ...
  triclinic box = (0 0 0) to (13.839519 16.94988 38.750136) with tilt (-13.839519 0 0)
  triclinic box = (0 0 0) to (13.839519 16.94988 38.750136) with tilt (-13.839519 0 0)
  triclinic box = (0 0 0) to (13.839519 16.94988 38.750136) with tilt (-13.839519 0 0)
  triclinic box = (0 0 0) to (13.839519 16.94988 38.750136) with tilt (-13.839519 0 0)
  triclinic box = (0 0 0) to (13.839519 16.94988 38.750136) with tilt (-13.839519 0 0)
  triclinic box = (0 0 0) to (13.839519 16.94988 38.750136) with tilt (-13.839519 0 0)
echo none
run 0
Per MPI rank memory allocation (min/avg/max) = 3.321 | 3.321 | 3.321 Mbytes
    PotEng          Pxx           E_mol          E_coul    
-311.28731     -583.42163      0              0            
Loop time of 1.167e-06 on 1 procs for 0 steps with 160 atoms

0.0% CPU use with 1 MPI tasks x no OpenMP threads

MPI task timing breakdown:
Section |  min time  |  avg time  |  max time  |%varavg| %total
---------------------------------------------------------------
Pair    | 0          | 0          | 0          |   0.0 |  0.00
Neigh   | 0          | 0          | 0          |   0.0 |  0.00
Comm    | 0          | 0          | 0          |   0.0 |  0.00
Output  | 0          | 0          | 0          |   0.0 |  0.00
Modify  | 0          | 0          | 0          |   0.0 |  0.00
Other   |            | 1.167e-06  |            |       |100.00

Nlocal:            160 ave         160 max         160 min
Histogram: 1 0 0 0 0 0 0 0 0 0
Nghost:            820 ave         820 max         820 min
Histogram: 1 0 0 0 0 0 0 0 0 0
Neighs:           8992 ave        8992 max        8992 min
Histogram: 1 0 0 0 0 0 0 0 0 0

Total # of neighbors = 8992
Ave neighs/atom = 56.2
Neighbor list builds = 0
Dangerous builds = 0
set atom * x 0.0 y 0.0 z 0.0
Setting atom values ...
  160 settings made for x
  160 settings made for y
  160 settings made for z
change_box all     x final 0 13.83957942869217 y final 0 16.94995392750716 z final 0 38.750304006714636      xy final -13.839579428692169 xz final 0.0 yz final 0.0 units box
Changing box ...
  triclinic box = (0 0 0) to (13.839579 16.94988 38.750136) with tilt (-13.839519 0 0)
  triclinic box = (0 0 0) to (13.839579 16.949954 38.750136) with tilt (-13.839519 0 0)
  triclinic box = (0 0 0) to (13.839579 16.949954 38.750304) with tilt (-13.839519 0 0)
  triclinic box = (0 0 0) to (13.839579 16.949954 38.750304) with tilt (-13.839579 0 0)
  triclinic box = (0 0 0) to (13.839579 16.949954 38.750304) with tilt (-13.839579 0 0)
  triclinic box = (0 0 0) to (13.839579 16.949954 38.750304) with tilt (-13.839579 0 0)
echo none
run 0
Per MPI rank memory allocation (min/avg/max) = 3.321 | 3.321 | 3.321 Mbytes
    PotEng          Pxx           E_mol          E_coul    
-311.28765     -588.0219       0              0            
Loop time of 8.33e-07 on 1 procs for 0 steps with 160 atoms

0.0% CPU use with 1 MPI tasks x no OpenMP threads

MPI task timing breakdown:
Section |  min time  |  avg time  |  max time  |%varavg| %total
---------------------------------------------------------------
Pair    | 0          | 0          | 0          |   0.0 |  0.00
Neigh   | 0          | 0          | 0          |   0.0 |  0.00
Comm    | 0          | 0          | 0          |   0.0 |  0.00
Output  | 0          | 0          | 0          |   0.0 |  0.00
Modify  | 0          | 0          | 0          |   0.0 |  0.00
Other   |            | 8.33e-07   |            |       |100.00

Nlocal:            160 ave         160 max         160 min
Histogram: 1 0 0 0 0 0 0 0 0 0
Nghost:            820 ave         820 max         820 min
Histogram: 1 0 0 0 0 0 0 0 0 0
Neighs:           8992 ave        8992 max        8992 min
Histogram: 1 0 0 0 0 0 0 0 0 0

Total # of neighbors = 8992
Ave neighs/atom = 56.2
Neighbor list builds = 0
Dangerous builds = 0
set atom * x 0.0 y 0.0 z 0.0
Setting atom values ...
  160 settings made for x
  160 settings made for y
  160 settings made for z
change_box all     x final 0 13.839819659706215 y final 0 16.950248149209553 z final 0 38.750976644555536      xy final -13.839819659706214 xz final 0.0 yz final 0.0 units box
Changing box ...
  triclinic box = (0 0 0) to (13.83982 16.949954 38.750304) with tilt (-13.839579 0 0)
  triclinic box = (0 0 0) to (13.83982 16.950248 38.750304) with tilt (-13.839579 0 0)
  triclinic box = (0 0 0) to (13.83982 16.950248 38.750977) with tilt (-13.839579 0 0)
  triclinic box = (0 0 0) to (13.83982 16.950248 38.750977) with tilt (-13.83982 0 0)
  triclinic box = (0 0 0) to (13.83982 16.950248 38.750977) with tilt (-13.83982 0 0)
  triclinic box = (0 0 0) to (13.83982 16.950248 38.750977) with tilt (-13.83982 0 0)
echo none
run 0
Per MPI rank memory allocation (min/avg/max) = 3.321 | 3.321 | 3.321 Mbytes
    PotEng          Pxx           E_mol          E_coul    
-311.28836     -605.94732      0              0            
Loop time of 9.17e-07 on 1 procs for 0 steps with 160 atoms

0.0% CPU use with 1 MPI tasks x no OpenMP threads

MPI task timing breakdown:
Section |  min time  |  avg time  |  max time  |%varavg| %total
---------------------------------------------------------------
Pair    | 0          | 0          | 0          |   0.0 |  0.00
Neigh   | 0          | 0          | 0          |   0.0 |  0.00
Comm    | 0          | 0          | 0          |   0.0 |  0.00
Output  | 0          | 0          | 0          |   0.0 |  0.00
Modify  | 0          | 0          | 0          |   0.0 |  0.00
Other   |            | 9.17e-07   |            |       |100.00

Nlocal:            160 ave         160 max         160 min
Histogram: 1 0 0 0 0 0 0 0 0 0
Nghost:            820 ave         820 max         820 min
Histogram: 1 0 0 0 0 0 0 0 0 0
Neighs:           8992 ave        8992 max        8992 min
Histogram: 1 0 0 0 0 0 0 0 0 0

Total # of neighbors = 8992
Ave neighs/atom = 56.2
Neighbor list builds = 0
Dangerous builds = 0
Total wall time: 0:00:16
