LAMMPS (23 Jun 2022 - Update 4)
units metal
atom_style atomic
atom_modify map array sort 0 0
boundary p p p
box tilt large
region cell prism    0 2.845 0 2.845 0 2.845     0.0 0.0 0.0     units box
create_box 1 cell
Created triclinic box = (0 0 0) to (2.845 2.845 2.845) with tilt (0 0 0)
  1 by 1 by 1 MPI processor grid
echo none
Created 2 atoms
  using lattice units in triclinic box = (0 0 0) to (2.845 2.845 2.845) with tilt (0 0 0)
  create_atoms CPU = 0.000 seconds
Setting atom values ...
  1 settings made for type
Setting atom values ...
  1 settings made for type
pair_style eam/alloy
pair_coeff * * potentials/Cr.eam.alloy Cr
Reading eam/alloy potential file potentials/Cr.eam.alloy with DATE: 2018-03-30
mass 1 51.996099986624294331249984679744
variable pxx equal pxx
variable pyy equal pyy
variable pzz equal pzz
variable pxy equal pxy
variable pxz equal pxz
variable pyz equal pyz
thermo_style custom pe pxx emol ecoul
variable fx atom fx
variable fy atom fy
variable fz atom fz
variable pe equal pe
neigh_modify delay 0 every 1 check yes
echo none
run 0
WARNING: No fixes with time integration, atoms won't move (src/src/verlet.cpp:60)
Neighbor list info ...
  update every 1 steps, delay 0 steps, check yes
  max neighbors/atom: 2000, page size: 100000
  master list distance cutoff = 7.576483
  ghost atom cutoff = 7.576483
  binsize = 3.7882415, bins = 1 1 1
  1 neighbor lists, perpetual/occasional/extra = 1 0 0
  (1) pair eam/alloy, perpetual
      attributes: half, newton on
      pair build: half/bin/newton/tri
      stencil: half/bin/3d/tri
      bin: standard
Per MPI rank memory allocation (min/avg/max) = 3.244 | 3.244 | 3.244 Mbytes
    PotEng          Pxx           E_mol          E_coul    
-8.3688647      20198.343      0              0            
Loop time of 7.08e-07 on 1 procs for 0 steps with 2 atoms

141.2% CPU use with 1 MPI tasks x no OpenMP threads

MPI task timing breakdown:
Section |  min time  |  avg time  |  max time  |%varavg| %total
---------------------------------------------------------------
Pair    | 0          | 0          | 0          |   0.0 |  0.00
Neigh   | 0          | 0          | 0          |   0.0 |  0.00
Comm    | 0          | 0          | 0          |   0.0 |  0.00
Output  | 0          | 0          | 0          |   0.0 |  0.00
Modify  | 0          | 0          | 0          |   0.0 |  0.00
Other   |            | 7.08e-07   |            |       |100.00

Nlocal:              2 ave           2 max           2 min
Histogram: 1 0 0 0 0 0 0 0 0 0
Nghost:            557 ave         557 max         557 min
Histogram: 1 0 0 0 0 0 0 0 0 0
Neighs:            168 ave         168 max         168 min
Histogram: 1 0 0 0 0 0 0 0 0 0

Total # of neighbors = 168
Ave neighs/atom = 84
Neighbor list builds = 0
Dangerous builds = 0
set atom * x 0.0 y 0.0 z 0.0
Setting atom values ...
  2 settings made for x
  2 settings made for y
  2 settings made for z
change_box all     x final 0 2.9288018363564836 y final 0 2.9288018363564836 z final 0 2.9288018363564836      xy final 0.0 xz final 0.0 yz final 0.0 units box
Changing box ...
  triclinic box = (0 0 0) to (2.9288018 2.845 2.845) with tilt (0 0 0)
  triclinic box = (0 0 0) to (2.9288018 2.9288018 2.845) with tilt (0 0 0)
  triclinic box = (0 0 0) to (2.9288018 2.9288018 2.9288018) with tilt (0 0 0)
  triclinic box = (0 0 0) to (2.9288018 2.9288018 2.9288018) with tilt (0 0 0)
  triclinic box = (0 0 0) to (2.9288018 2.9288018 2.9288018) with tilt (0 0 0)
  triclinic box = (0 0 0) to (2.9288018 2.9288018 2.9288018) with tilt (0 0 0)
echo none
run 0
WARNING: No fixes with time integration, atoms won't move (src/src/verlet.cpp:60)
Per MPI rank memory allocation (min/avg/max) = 3.244 | 3.244 | 3.244 Mbytes
    PotEng          Pxx           E_mol          E_coul    
-8.2923059     -125891.42      0              0            
Loop time of 1.042e-06 on 1 procs for 0 steps with 2 atoms

96.0% CPU use with 1 MPI tasks x no OpenMP threads

MPI task timing breakdown:
Section |  min time  |  avg time  |  max time  |%varavg| %total
---------------------------------------------------------------
Pair    | 0          | 0          | 0          |   0.0 |  0.00
Neigh   | 0          | 0          | 0          |   0.0 |  0.00
Comm    | 0          | 0          | 0          |   0.0 |  0.00
Output  | 0          | 0          | 0          |   0.0 |  0.00
Modify  | 0          | 0          | 0          |   0.0 |  0.00
Other   |            | 1.042e-06  |            |       |100.00

Nlocal:              2 ave           2 max           2 min
Histogram: 1 0 0 0 0 0 0 0 0 0
Nghost:            557 ave         557 max         557 min
Histogram: 1 0 0 0 0 0 0 0 0 0
Neighs:            136 ave         136 max         136 min
Histogram: 1 0 0 0 0 0 0 0 0 0

Total # of neighbors = 136
Ave neighs/atom = 68
Neighbor list builds = 0
Dangerous builds = 0
set atom * x 0.0 y 0.0 z 0.0
Setting atom values ...
  2 settings made for x
  2 settings made for y
  2 settings made for z
change_box all     x final 0 2.854758475660703 y final 0 2.854758475660703 z final 0 2.854758475660703      xy final 0.0 xz final 0.0 yz final 0.0 units box
Changing box ...
  triclinic box = (0 0 0) to (2.8547585 2.9288018 2.9288018) with tilt (0 0 0)
  triclinic box = (0 0 0) to (2.8547585 2.8547585 2.9288018) with tilt (0 0 0)
  triclinic box = (0 0 0) to (2.8547585 2.8547585 2.8547585) with tilt (0 0 0)
  triclinic box = (0 0 0) to (2.8547585 2.8547585 2.8547585) with tilt (0 0 0)
  triclinic box = (0 0 0) to (2.8547585 2.8547585 2.8547585) with tilt (0 0 0)
  triclinic box = (0 0 0) to (2.8547585 2.8547585 2.8547585) with tilt (0 0 0)
echo none
run 0
WARNING: No fixes with time integration, atoms won't move (src/src/verlet.cpp:60)
Per MPI rank memory allocation (min/avg/max) = 3.244 | 3.244 | 3.244 Mbytes
    PotEng          Pxx           E_mol          E_coul    
-8.3703462     -41.131606      0              0            
Loop time of 1.166e-06 on 1 procs for 0 steps with 2 atoms

85.8% CPU use with 1 MPI tasks x no OpenMP threads

MPI task timing breakdown:
Section |  min time  |  avg time  |  max time  |%varavg| %total
---------------------------------------------------------------
Pair    | 0          | 0          | 0          |   0.0 |  0.00
Neigh   | 0          | 0          | 0          |   0.0 |  0.00
Comm    | 0          | 0          | 0          |   0.0 |  0.00
Output  | 0          | 0          | 0          |   0.0 |  0.00
Modify  | 0          | 0          | 0          |   0.0 |  0.00
Other   |            | 1.166e-06  |            |       |100.00

Nlocal:              2 ave           2 max           2 min
Histogram: 1 0 0 0 0 0 0 0 0 0
Nghost:            557 ave         557 max         557 min
Histogram: 1 0 0 0 0 0 0 0 0 0
Neighs:            168 ave         168 max         168 min
Histogram: 1 0 0 0 0 0 0 0 0 0

Total # of neighbors = 168
Ave neighs/atom = 84
Neighbor list builds = 0
Dangerous builds = 0
set atom * x 0.0 y 0.0 z 0.0
Setting atom values ...
  2 settings made for x
  2 settings made for y
  2 settings made for z
change_box all     x final 0 2.569282628094633 y final 0 2.569282628094633 z final 0 2.569282628094633      xy final 0.0 xz final 0.0 yz final 0.0 units box
Changing box ...
  triclinic box = (0 0 0) to (2.5692826 2.8547585 2.8547585) with tilt (0 0 0)
  triclinic box = (0 0 0) to (2.5692826 2.5692826 2.8547585) with tilt (0 0 0)
  triclinic box = (0 0 0) to (2.5692826 2.5692826 2.5692826) with tilt (0 0 0)
  triclinic box = (0 0 0) to (2.5692826 2.5692826 2.5692826) with tilt (0 0 0)
  triclinic box = (0 0 0) to (2.5692826 2.5692826 2.5692826) with tilt (0 0 0)
  triclinic box = (0 0 0) to (2.5692826 2.5692826 2.5692826) with tilt (0 0 0)
echo none
run 0
WARNING: No fixes with time integration, atoms won't move (src/src/verlet.cpp:60)
Per MPI rank memory allocation (min/avg/max) = 3.244 | 3.244 | 3.244 Mbytes
    PotEng          Pxx           E_mol          E_coul    
-6.7633524      1056190.7      0              0            
Loop time of 1.375e-06 on 1 procs for 0 steps with 2 atoms

218.2% CPU use with 1 MPI tasks x no OpenMP threads

MPI task timing breakdown:
Section |  min time  |  avg time  |  max time  |%varavg| %total
---------------------------------------------------------------
Pair    | 0          | 0          | 0          |   0.0 |  0.00
Neigh   | 0          | 0          | 0          |   0.0 |  0.00
Comm    | 0          | 0          | 0          |   0.0 |  0.00
Output  | 0          | 0          | 0          |   0.0 |  0.00
Modify  | 0          | 0          | 0          |   0.0 |  0.00
Other   |            | 1.375e-06  |            |       |100.00

Nlocal:              2 ave           2 max           2 min
Histogram: 1 0 0 0 0 0 0 0 0 0
Nghost:            557 ave         557 max         557 min
Histogram: 1 0 0 0 0 0 0 0 0 0
Neighs:            180 ave         180 max         180 min
Histogram: 1 0 0 0 0 0 0 0 0 0

Total # of neighbors = 180
Ave neighs/atom = 90
Neighbor list builds = 0
Dangerous builds = 0
set atom * x 0.0 y 0.0 z 0.0
Setting atom values ...
  2 settings made for x
  2 settings made for y
  2 settings made for z
change_box all     x final 0 2.59783021285124 y final 0 2.59783021285124 z final 0 2.59783021285124      xy final 0.0 xz final 0.0 yz final 0.0 units box
Changing box ...
  triclinic box = (0 0 0) to (2.5978302 2.5692826 2.5692826) with tilt (0 0 0)
  triclinic box = (0 0 0) to (2.5978302 2.5978302 2.5692826) with tilt (0 0 0)
  triclinic box = (0 0 0) to (2.5978302 2.5978302 2.5978302) with tilt (0 0 0)
  triclinic box = (0 0 0) to (2.5978302 2.5978302 2.5978302) with tilt (0 0 0)
  triclinic box = (0 0 0) to (2.5978302 2.5978302 2.5978302) with tilt (0 0 0)
  triclinic box = (0 0 0) to (2.5978302 2.5978302 2.5978302) with tilt (0 0 0)
echo none
run 0
WARNING: No fixes with time integration, atoms won't move (src/src/verlet.cpp:60)
Per MPI rank memory allocation (min/avg/max) = 3.244 | 3.244 | 3.244 Mbytes
    PotEng          Pxx           E_mol          E_coul    
-7.1087269      883961.34      0              0            
Loop time of 1.083e-06 on 1 procs for 0 steps with 2 atoms

92.3% CPU use with 1 MPI tasks x no OpenMP threads

MPI task timing breakdown:
Section |  min time  |  avg time  |  max time  |%varavg| %total
---------------------------------------------------------------
Pair    | 0          | 0          | 0          |   0.0 |  0.00
Neigh   | 0          | 0          | 0          |   0.0 |  0.00
Comm    | 0          | 0          | 0          |   0.0 |  0.00
Output  | 0          | 0          | 0          |   0.0 |  0.00
Modify  | 0          | 0          | 0          |   0.0 |  0.00
Other   |            | 1.083e-06  |            |       |100.00

Nlocal:              2 ave           2 max           2 min
Histogram: 1 0 0 0 0 0 0 0 0 0
Nghost:            557 ave         557 max         557 min
Histogram: 1 0 0 0 0 0 0 0 0 0
Neighs:            180 ave         180 max         180 min
Histogram: 1 0 0 0 0 0 0 0 0 0

Total # of neighbors = 180
Ave neighs/atom = 90
Neighbor list builds = 0
Dangerous builds = 0
set atom * x 0.0 y 0.0 z 0.0
Setting atom values ...
  2 settings made for x
  2 settings made for y
  2 settings made for z
change_box all     x final 0 2.626377797607847 y final 0 2.626377797607847 z final 0 2.626377797607847      xy final 0.0 xz final 0.0 yz final 0.0 units box
Changing box ...
  triclinic box = (0 0 0) to (2.6263778 2.5978302 2.5978302) with tilt (0 0 0)
  triclinic box = (0 0 0) to (2.6263778 2.6263778 2.5978302) with tilt (0 0 0)
  triclinic box = (0 0 0) to (2.6263778 2.6263778 2.6263778) with tilt (0 0 0)
  triclinic box = (0 0 0) to (2.6263778 2.6263778 2.6263778) with tilt (0 0 0)
  triclinic box = (0 0 0) to (2.6263778 2.6263778 2.6263778) with tilt (0 0 0)
  triclinic box = (0 0 0) to (2.6263778 2.6263778 2.6263778) with tilt (0 0 0)
echo none
run 0
WARNING: No fixes with time integration, atoms won't move (src/src/verlet.cpp:60)
Per MPI rank memory allocation (min/avg/max) = 3.244 | 3.244 | 3.244 Mbytes
    PotEng          Pxx           E_mol          E_coul    
-7.4027256      731955.11      0              0            
Loop time of 1.209e-06 on 1 procs for 0 steps with 2 atoms

0.0% CPU use with 1 MPI tasks x no OpenMP threads

MPI task timing breakdown:
Section |  min time  |  avg time  |  max time  |%varavg| %total
---------------------------------------------------------------
Pair    | 0          | 0          | 0          |   0.0 |  0.00
Neigh   | 0          | 0          | 0          |   0.0 |  0.00
Comm    | 0          | 0          | 0          |   0.0 |  0.00
Output  | 0          | 0          | 0          |   0.0 |  0.00
Modify  | 0          | 0          | 0          |   0.0 |  0.00
Other   |            | 1.209e-06  |            |       |100.00

Nlocal:              2 ave           2 max           2 min
Histogram: 1 0 0 0 0 0 0 0 0 0
Nghost:            557 ave         557 max         557 min
Histogram: 1 0 0 0 0 0 0 0 0 0
Neighs:            180 ave         180 max         180 min
Histogram: 1 0 0 0 0 0 0 0 0 0

Total # of neighbors = 180
Ave neighs/atom = 90
Neighbor list builds = 0
Dangerous builds = 0
set atom * x 0.0 y 0.0 z 0.0
Setting atom values ...
  2 settings made for x
  2 settings made for y
  2 settings made for z
change_box all     x final 0 2.6549253823644543 y final 0 2.6549253823644543 z final 0 2.6549253823644543      xy final 0.0 xz final 0.0 yz final 0.0 units box
Changing box ...
  triclinic box = (0 0 0) to (2.6549254 2.6263778 2.6263778) with tilt (0 0 0)
  triclinic box = (0 0 0) to (2.6549254 2.6549254 2.6263778) with tilt (0 0 0)
  triclinic box = (0 0 0) to (2.6549254 2.6549254 2.6549254) with tilt (0 0 0)
  triclinic box = (0 0 0) to (2.6549254 2.6549254 2.6549254) with tilt (0 0 0)
  triclinic box = (0 0 0) to (2.6549254 2.6549254 2.6549254) with tilt (0 0 0)
  triclinic box = (0 0 0) to (2.6549254 2.6549254 2.6549254) with tilt (0 0 0)
echo none
run 0
WARNING: No fixes with time integration, atoms won't move (src/src/verlet.cpp:60)
Per MPI rank memory allocation (min/avg/max) = 3.244 | 3.244 | 3.244 Mbytes
    PotEng          Pxx           E_mol          E_coul    
-7.6499821      598063.92      0              0            
Loop time of 1e-06 on 1 procs for 0 steps with 2 atoms

100.0% CPU use with 1 MPI tasks x no OpenMP threads

MPI task timing breakdown:
Section |  min time  |  avg time  |  max time  |%varavg| %total
---------------------------------------------------------------
Pair    | 0          | 0          | 0          |   0.0 |  0.00
Neigh   | 0          | 0          | 0          |   0.0 |  0.00
Comm    | 0          | 0          | 0          |   0.0 |  0.00
Output  | 0          | 0          | 0          |   0.0 |  0.00
Modify  | 0          | 0          | 0          |   0.0 |  0.00
Other   |            | 1e-06      |            |       |100.00

Nlocal:              2 ave           2 max           2 min
Histogram: 1 0 0 0 0 0 0 0 0 0
Nghost:            557 ave         557 max         557 min
Histogram: 1 0 0 0 0 0 0 0 0 0
Neighs:            180 ave         180 max         180 min
Histogram: 1 0 0 0 0 0 0 0 0 0

Total # of neighbors = 180
Ave neighs/atom = 90
Neighbor list builds = 0
Dangerous builds = 0
set atom * x 0.0 y 0.0 z 0.0
Setting atom values ...
  2 settings made for x
  2 settings made for y
  2 settings made for z
change_box all     x final 0 2.683472967121061 y final 0 2.683472967121061 z final 0 2.683472967121061      xy final 0.0 xz final 0.0 yz final 0.0 units box
Changing box ...
  triclinic box = (0 0 0) to (2.683473 2.6549254 2.6549254) with tilt (0 0 0)
  triclinic box = (0 0 0) to (2.683473 2.683473 2.6549254) with tilt (0 0 0)
  triclinic box = (0 0 0) to (2.683473 2.683473 2.683473) with tilt (0 0 0)
  triclinic box = (0 0 0) to (2.683473 2.683473 2.683473) with tilt (0 0 0)
  triclinic box = (0 0 0) to (2.683473 2.683473 2.683473) with tilt (0 0 0)
  triclinic box = (0 0 0) to (2.683473 2.683473 2.683473) with tilt (0 0 0)
echo none
run 0
WARNING: No fixes with time integration, atoms won't move (src/src/verlet.cpp:60)
Per MPI rank memory allocation (min/avg/max) = 3.244 | 3.244 | 3.244 Mbytes
    PotEng          Pxx           E_mol          E_coul    
-7.8547455      480160.12      0              0            
Loop time of 9.16e-07 on 1 procs for 0 steps with 2 atoms

0.0% CPU use with 1 MPI tasks x no OpenMP threads

MPI task timing breakdown:
Section |  min time  |  avg time  |  max time  |%varavg| %total
---------------------------------------------------------------
Pair    | 0          | 0          | 0          |   0.0 |  0.00
Neigh   | 0          | 0          | 0          |   0.0 |  0.00
Comm    | 0          | 0          | 0          |   0.0 |  0.00
Output  | 0          | 0          | 0          |   0.0 |  0.00
Modify  | 0          | 0          | 0          |   0.0 |  0.00
Other   |            | 9.16e-07   |            |       |100.00

Nlocal:              2 ave           2 max           2 min
Histogram: 1 0 0 0 0 0 0 0 0 0
Nghost:            557 ave         557 max         557 min
Histogram: 1 0 0 0 0 0 0 0 0 0
Neighs:            168 ave         168 max         168 min
Histogram: 1 0 0 0 0 0 0 0 0 0

Total # of neighbors = 168
Ave neighs/atom = 84
Neighbor list builds = 0
Dangerous builds = 0
set atom * x 0.0 y 0.0 z 0.0
Setting atom values ...
  2 settings made for x
  2 settings made for y
  2 settings made for z
change_box all     x final 0 2.7120205518776683 y final 0 2.7120205518776683 z final 0 2.7120205518776683      xy final 0.0 xz final 0.0 yz final 0.0 units box
Changing box ...
  triclinic box = (0 0 0) to (2.7120206 2.683473 2.683473) with tilt (0 0 0)
  triclinic box = (0 0 0) to (2.7120206 2.7120206 2.683473) with tilt (0 0 0)
  triclinic box = (0 0 0) to (2.7120206 2.7120206 2.7120206) with tilt (0 0 0)
  triclinic box = (0 0 0) to (2.7120206 2.7120206 2.7120206) with tilt (0 0 0)
  triclinic box = (0 0 0) to (2.7120206 2.7120206 2.7120206) with tilt (0 0 0)
  triclinic box = (0 0 0) to (2.7120206 2.7120206 2.7120206) with tilt (0 0 0)
echo none
run 0
WARNING: No fixes with time integration, atoms won't move (src/src/verlet.cpp:60)
Per MPI rank memory allocation (min/avg/max) = 3.244 | 3.244 | 3.244 Mbytes
    PotEng          Pxx           E_mol          E_coul    
-8.0208234      376148.67      0              0            
Loop time of 1.125e-06 on 1 procs for 0 steps with 2 atoms

88.9% CPU use with 1 MPI tasks x no OpenMP threads

MPI task timing breakdown:
Section |  min time  |  avg time  |  max time  |%varavg| %total
---------------------------------------------------------------
Pair    | 0          | 0          | 0          |   0.0 |  0.00
Neigh   | 0          | 0          | 0          |   0.0 |  0.00
Comm    | 0          | 0          | 0          |   0.0 |  0.00
Output  | 0          | 0          | 0          |   0.0 |  0.00
Modify  | 0          | 0          | 0          |   0.0 |  0.00
Other   |            | 1.125e-06  |            |       |100.00

Nlocal:              2 ave           2 max           2 min
Histogram: 1 0 0 0 0 0 0 0 0 0
Nghost:            557 ave         557 max         557 min
Histogram: 1 0 0 0 0 0 0 0 0 0
Neighs:            168 ave         168 max         168 min
Histogram: 1 0 0 0 0 0 0 0 0 0

Total # of neighbors = 168
Ave neighs/atom = 84
Neighbor list builds = 0
Dangerous builds = 0
set atom * x 0.0 y 0.0 z 0.0
Setting atom values ...
  2 settings made for x
  2 settings made for y
  2 settings made for z
change_box all     x final 0 2.740568136634275 y final 0 2.740568136634275 z final 0 2.740568136634275      xy final 0.0 xz final 0.0 yz final 0.0 units box
Changing box ...
  triclinic box = (0 0 0) to (2.7405681 2.7120206 2.7120206) with tilt (0 0 0)
  triclinic box = (0 0 0) to (2.7405681 2.7405681 2.7120206) with tilt (0 0 0)
  triclinic box = (0 0 0) to (2.7405681 2.7405681 2.7405681) with tilt (0 0 0)
  triclinic box = (0 0 0) to (2.7405681 2.7405681 2.7405681) with tilt (0 0 0)
  triclinic box = (0 0 0) to (2.7405681 2.7405681 2.7405681) with tilt (0 0 0)
  triclinic box = (0 0 0) to (2.7405681 2.7405681 2.7405681) with tilt (0 0 0)
echo none
run 0
WARNING: No fixes with time integration, atoms won't move (src/src/verlet.cpp:60)
Per MPI rank memory allocation (min/avg/max) = 3.244 | 3.244 | 3.244 Mbytes
    PotEng          Pxx           E_mol          E_coul    
-8.1515433      284015.35      0              0            
Loop time of 1e-06 on 1 procs for 0 steps with 2 atoms

100.0% CPU use with 1 MPI tasks x no OpenMP threads

MPI task timing breakdown:
Section |  min time  |  avg time  |  max time  |%varavg| %total
---------------------------------------------------------------
Pair    | 0          | 0          | 0          |   0.0 |  0.00
Neigh   | 0          | 0          | 0          |   0.0 |  0.00
Comm    | 0          | 0          | 0          |   0.0 |  0.00
Output  | 0          | 0          | 0          |   0.0 |  0.00
Modify  | 0          | 0          | 0          |   0.0 |  0.00
Other   |            | 1e-06      |            |       |100.00

Nlocal:              2 ave           2 max           2 min
Histogram: 1 0 0 0 0 0 0 0 0 0
Nghost:            557 ave         557 max         557 min
Histogram: 1 0 0 0 0 0 0 0 0 0
Neighs:            168 ave         168 max         168 min
Histogram: 1 0 0 0 0 0 0 0 0 0

Total # of neighbors = 168
Ave neighs/atom = 84
Neighbor list builds = 0
Dangerous builds = 0
set atom * x 0.0 y 0.0 z 0.0
Setting atom values ...
  2 settings made for x
  2 settings made for y
  2 settings made for z
change_box all     x final 0 2.7691157213908824 y final 0 2.7691157213908824 z final 0 2.7691157213908824      xy final 0.0 xz final 0.0 yz final 0.0 units box
Changing box ...
  triclinic box = (0 0 0) to (2.7691157 2.7405681 2.7405681) with tilt (0 0 0)
  triclinic box = (0 0 0) to (2.7691157 2.7691157 2.7405681) with tilt (0 0 0)
  triclinic box = (0 0 0) to (2.7691157 2.7691157 2.7691157) with tilt (0 0 0)
  triclinic box = (0 0 0) to (2.7691157 2.7691157 2.7691157) with tilt (0 0 0)
  triclinic box = (0 0 0) to (2.7691157 2.7691157 2.7691157) with tilt (0 0 0)
  triclinic box = (0 0 0) to (2.7691157 2.7691157 2.7691157) with tilt (0 0 0)
echo none
run 0
WARNING: No fixes with time integration, atoms won't move (src/src/verlet.cpp:60)
Per MPI rank memory allocation (min/avg/max) = 3.244 | 3.244 | 3.244 Mbytes
    PotEng          Pxx           E_mol          E_coul    
-8.249735       201877.78      0              0            
Loop time of 1.042e-06 on 1 procs for 0 steps with 2 atoms

96.0% CPU use with 1 MPI tasks x no OpenMP threads

MPI task timing breakdown:
Section |  min time  |  avg time  |  max time  |%varavg| %total
---------------------------------------------------------------
Pair    | 0          | 0          | 0          |   0.0 |  0.00
Neigh   | 0          | 0          | 0          |   0.0 |  0.00
Comm    | 0          | 0          | 0          |   0.0 |  0.00
Output  | 0          | 0          | 0          |   0.0 |  0.00
Modify  | 0          | 0          | 0          |   0.0 |  0.00
Other   |            | 1.042e-06  |            |       |100.00

Nlocal:              2 ave           2 max           2 min
Histogram: 1 0 0 0 0 0 0 0 0 0
Nghost:            557 ave         557 max         557 min
Histogram: 1 0 0 0 0 0 0 0 0 0
Neighs:            168 ave         168 max         168 min
Histogram: 1 0 0 0 0 0 0 0 0 0

Total # of neighbors = 168
Ave neighs/atom = 84
Neighbor list builds = 0
Dangerous builds = 0
set atom * x 0.0 y 0.0 z 0.0
Setting atom values ...
  2 settings made for x
  2 settings made for y
  2 settings made for z
change_box all     x final 0 2.7976633061474896 y final 0 2.7976633061474896 z final 0 2.7976633061474896      xy final 0.0 xz final 0.0 yz final 0.0 units box
Changing box ...
  triclinic box = (0 0 0) to (2.7976633 2.7691157 2.7691157) with tilt (0 0 0)
  triclinic box = (0 0 0) to (2.7976633 2.7976633 2.7691157) with tilt (0 0 0)
  triclinic box = (0 0 0) to (2.7976633 2.7976633 2.7976633) with tilt (0 0 0)
  triclinic box = (0 0 0) to (2.7976633 2.7976633 2.7976633) with tilt (0 0 0)
  triclinic box = (0 0 0) to (2.7976633 2.7976633 2.7976633) with tilt (0 0 0)
  triclinic box = (0 0 0) to (2.7976633 2.7976633 2.7976633) with tilt (0 0 0)
echo none
run 0
WARNING: No fixes with time integration, atoms won't move (src/src/verlet.cpp:60)
Per MPI rank memory allocation (min/avg/max) = 3.244 | 3.244 | 3.244 Mbytes
    PotEng          Pxx           E_mol          E_coul    
-8.3177373      128043.99      0              0            
Loop time of 8.75e-07 on 1 procs for 0 steps with 2 atoms

0.0% CPU use with 1 MPI tasks x no OpenMP threads

MPI task timing breakdown:
Section |  min time  |  avg time  |  max time  |%varavg| %total
---------------------------------------------------------------
Pair    | 0          | 0          | 0          |   0.0 |  0.00
Neigh   | 0          | 0          | 0          |   0.0 |  0.00
Comm    | 0          | 0          | 0          |   0.0 |  0.00
Output  | 0          | 0          | 0          |   0.0 |  0.00
Modify  | 0          | 0          | 0          |   0.0 |  0.00
Other   |            | 8.75e-07   |            |       |100.00

Nlocal:              2 ave           2 max           2 min
Histogram: 1 0 0 0 0 0 0 0 0 0
Nghost:            557 ave         557 max         557 min
Histogram: 1 0 0 0 0 0 0 0 0 0
Neighs:            168 ave         168 max         168 min
Histogram: 1 0 0 0 0 0 0 0 0 0

Total # of neighbors = 168
Ave neighs/atom = 84
Neighbor list builds = 0
Dangerous builds = 0
set atom * x 0.0 y 0.0 z 0.0
Setting atom values ...
  2 settings made for x
  2 settings made for y
  2 settings made for z
change_box all     x final 0 2.8262108909040964 y final 0 2.8262108909040964 z final 0 2.8262108909040964      xy final 0.0 xz final 0.0 yz final 0.0 units box
Changing box ...
  triclinic box = (0 0 0) to (2.8262109 2.7976633 2.7976633) with tilt (0 0 0)
  triclinic box = (0 0 0) to (2.8262109 2.8262109 2.7976633) with tilt (0 0 0)
  triclinic box = (0 0 0) to (2.8262109 2.8262109 2.8262109) with tilt (0 0 0)
  triclinic box = (0 0 0) to (2.8262109 2.8262109 2.8262109) with tilt (0 0 0)
  triclinic box = (0 0 0) to (2.8262109 2.8262109 2.8262109) with tilt (0 0 0)
  triclinic box = (0 0 0) to (2.8262109 2.8262109 2.8262109) with tilt (0 0 0)
echo none
run 0
WARNING: No fixes with time integration, atoms won't move (src/src/verlet.cpp:60)
Per MPI rank memory allocation (min/avg/max) = 3.244 | 3.244 | 3.244 Mbytes
    PotEng          Pxx           E_mol          E_coul    
-8.357437       61078.37       0              0            
Loop time of 8.75e-07 on 1 procs for 0 steps with 2 atoms

114.3% CPU use with 1 MPI tasks x no OpenMP threads

MPI task timing breakdown:
Section |  min time  |  avg time  |  max time  |%varavg| %total
---------------------------------------------------------------
Pair    | 0          | 0          | 0          |   0.0 |  0.00
Neigh   | 0          | 0          | 0          |   0.0 |  0.00
Comm    | 0          | 0          | 0          |   0.0 |  0.00
Output  | 0          | 0          | 0          |   0.0 |  0.00
Modify  | 0          | 0          | 0          |   0.0 |  0.00
Other   |            | 8.75e-07   |            |       |100.00

Nlocal:              2 ave           2 max           2 min
Histogram: 1 0 0 0 0 0 0 0 0 0
Nghost:            557 ave         557 max         557 min
Histogram: 1 0 0 0 0 0 0 0 0 0
Neighs:            168 ave         168 max         168 min
Histogram: 1 0 0 0 0 0 0 0 0 0

Total # of neighbors = 168
Ave neighs/atom = 84
Neighbor list builds = 0
Dangerous builds = 0
set atom * x 0.0 y 0.0 z 0.0
Setting atom values ...
  2 settings made for x
  2 settings made for y
  2 settings made for z
change_box all     x final 0 2.854758475660703 y final 0 2.854758475660703 z final 0 2.854758475660703      xy final 0.0 xz final 0.0 yz final 0.0 units box
Changing box ...
  triclinic box = (0 0 0) to (2.8547585 2.8262109 2.8262109) with tilt (0 0 0)
  triclinic box = (0 0 0) to (2.8547585 2.8547585 2.8262109) with tilt (0 0 0)
  triclinic box = (0 0 0) to (2.8547585 2.8547585 2.8547585) with tilt (0 0 0)
  triclinic box = (0 0 0) to (2.8547585 2.8547585 2.8547585) with tilt (0 0 0)
  triclinic box = (0 0 0) to (2.8547585 2.8547585 2.8547585) with tilt (0 0 0)
  triclinic box = (0 0 0) to (2.8547585 2.8547585 2.8547585) with tilt (0 0 0)
echo none
run 0
WARNING: No fixes with time integration, atoms won't move (src/src/verlet.cpp:60)
Per MPI rank memory allocation (min/avg/max) = 3.244 | 3.244 | 3.244 Mbytes
    PotEng          Pxx           E_mol          E_coul    
-8.3703462     -41.131606      0              0            
Loop time of 9.17e-07 on 1 procs for 0 steps with 2 atoms

0.0% CPU use with 1 MPI tasks x no OpenMP threads

MPI task timing breakdown:
Section |  min time  |  avg time  |  max time  |%varavg| %total
---------------------------------------------------------------
Pair    | 0          | 0          | 0          |   0.0 |  0.00
Neigh   | 0          | 0          | 0          |   0.0 |  0.00
Comm    | 0          | 0          | 0          |   0.0 |  0.00
Output  | 0          | 0          | 0          |   0.0 |  0.00
Modify  | 0          | 0          | 0          |   0.0 |  0.00
Other   |            | 9.17e-07   |            |       |100.00

Nlocal:              2 ave           2 max           2 min
Histogram: 1 0 0 0 0 0 0 0 0 0
Nghost:            557 ave         557 max         557 min
Histogram: 1 0 0 0 0 0 0 0 0 0
Neighs:            168 ave         168 max         168 min
Histogram: 1 0 0 0 0 0 0 0 0 0

Total # of neighbors = 168
Ave neighs/atom = 84
Neighbor list builds = 0
Dangerous builds = 0
set atom * x 0.0 y 0.0 z 0.0
Setting atom values ...
  2 settings made for x
  2 settings made for y
  2 settings made for z
change_box all     x final 0 2.883306060417311 y final 0 2.883306060417311 z final 0 2.883306060417311      xy final 0.0 xz final 0.0 yz final 0.0 units box
Changing box ...
  triclinic box = (0 0 0) to (2.8833061 2.8547585 2.8547585) with tilt (0 0 0)
  triclinic box = (0 0 0) to (2.8833061 2.8833061 2.8547585) with tilt (0 0 0)
  triclinic box = (0 0 0) to (2.8833061 2.8833061 2.8833061) with tilt (0 0 0)
  triclinic box = (0 0 0) to (2.8833061 2.8833061 2.8833061) with tilt (0 0 0)
  triclinic box = (0 0 0) to (2.8833061 2.8833061 2.8833061) with tilt (0 0 0)
  triclinic box = (0 0 0) to (2.8833061 2.8833061 2.8833061) with tilt (0 0 0)
echo none
run 0
WARNING: No fixes with time integration, atoms won't move (src/src/verlet.cpp:60)
Per MPI rank memory allocation (min/avg/max) = 3.244 | 3.244 | 3.244 Mbytes
    PotEng          Pxx           E_mol          E_coul    
-8.3581485     -54006.568      0              0            
Loop time of 1e-06 on 1 procs for 0 steps with 2 atoms

0.0% CPU use with 1 MPI tasks x no OpenMP threads

MPI task timing breakdown:
Section |  min time  |  avg time  |  max time  |%varavg| %total
---------------------------------------------------------------
Pair    | 0          | 0          | 0          |   0.0 |  0.00
Neigh   | 0          | 0          | 0          |   0.0 |  0.00
Comm    | 0          | 0          | 0          |   0.0 |  0.00
Output  | 0          | 0          | 0          |   0.0 |  0.00
Modify  | 0          | 0          | 0          |   0.0 |  0.00
Other   |            | 1e-06      |            |       |100.00

Nlocal:              2 ave           2 max           2 min
Histogram: 1 0 0 0 0 0 0 0 0 0
Nghost:            557 ave         557 max         557 min
Histogram: 1 0 0 0 0 0 0 0 0 0
Neighs:            168 ave         168 max         168 min
Histogram: 1 0 0 0 0 0 0 0 0 0

Total # of neighbors = 168
Ave neighs/atom = 84
Neighbor list builds = 0
Dangerous builds = 0
set atom * x 0.0 y 0.0 z 0.0
Setting atom values ...
  2 settings made for x
  2 settings made for y
  2 settings made for z
change_box all     x final 0 2.911853645173917 y final 0 2.911853645173917 z final 0 2.911853645173917      xy final 0.0 xz final 0.0 yz final 0.0 units box
Changing box ...
  triclinic box = (0 0 0) to (2.9118536 2.8833061 2.8833061) with tilt (0 0 0)
  triclinic box = (0 0 0) to (2.9118536 2.9118536 2.8833061) with tilt (0 0 0)
  triclinic box = (0 0 0) to (2.9118536 2.9118536 2.9118536) with tilt (0 0 0)
  triclinic box = (0 0 0) to (2.9118536 2.9118536 2.9118536) with tilt (0 0 0)
  triclinic box = (0 0 0) to (2.9118536 2.9118536 2.9118536) with tilt (0 0 0)
  triclinic box = (0 0 0) to (2.9118536 2.9118536 2.9118536) with tilt (0 0 0)
echo none
run 0
WARNING: No fixes with time integration, atoms won't move (src/src/verlet.cpp:60)
Per MPI rank memory allocation (min/avg/max) = 3.244 | 3.244 | 3.244 Mbytes
    PotEng          Pxx           E_mol          E_coul    
-8.3230727     -101043.96      0              0            
Loop time of 1.167e-06 on 1 procs for 0 steps with 2 atoms

85.7% CPU use with 1 MPI tasks x no OpenMP threads

MPI task timing breakdown:
Section |  min time  |  avg time  |  max time  |%varavg| %total
---------------------------------------------------------------
Pair    | 0          | 0          | 0          |   0.0 |  0.00
Neigh   | 0          | 0          | 0          |   0.0 |  0.00
Comm    | 0          | 0          | 0          |   0.0 |  0.00
Output  | 0          | 0          | 0          |   0.0 |  0.00
Modify  | 0          | 0          | 0          |   0.0 |  0.00
Other   |            | 1.167e-06  |            |       |100.00

Nlocal:              2 ave           2 max           2 min
Histogram: 1 0 0 0 0 0 0 0 0 0
Nghost:            557 ave         557 max         557 min
Histogram: 1 0 0 0 0 0 0 0 0 0
Neighs:            168 ave         168 max         168 min
Histogram: 1 0 0 0 0 0 0 0 0 0

Total # of neighbors = 168
Ave neighs/atom = 84
Neighbor list builds = 0
Dangerous builds = 0
set atom * x 0.0 y 0.0 z 0.0
Setting atom values ...
  2 settings made for x
  2 settings made for y
  2 settings made for z
change_box all     x final 0 2.940401229930525 y final 0 2.940401229930525 z final 0 2.940401229930525      xy final 0.0 xz final 0.0 yz final 0.0 units box
Changing box ...
  triclinic box = (0 0 0) to (2.9404012 2.9118536 2.9118536) with tilt (0 0 0)
  triclinic box = (0 0 0) to (2.9404012 2.9404012 2.9118536) with tilt (0 0 0)
  triclinic box = (0 0 0) to (2.9404012 2.9404012 2.9404012) with tilt (0 0 0)
  triclinic box = (0 0 0) to (2.9404012 2.9404012 2.9404012) with tilt (0 0 0)
  triclinic box = (0 0 0) to (2.9404012 2.9404012 2.9404012) with tilt (0 0 0)
  triclinic box = (0 0 0) to (2.9404012 2.9404012 2.9404012) with tilt (0 0 0)
echo none
run 0
WARNING: No fixes with time integration, atoms won't move (src/src/verlet.cpp:60)
Per MPI rank memory allocation (min/avg/max) = 3.244 | 3.244 | 3.244 Mbytes
    PotEng          Pxx           E_mol          E_coul    
-8.2672714     -141596.84      0              0            
Loop time of 9.58e-07 on 1 procs for 0 steps with 2 atoms

104.4% CPU use with 1 MPI tasks x no OpenMP threads

MPI task timing breakdown:
Section |  min time  |  avg time  |  max time  |%varavg| %total
---------------------------------------------------------------
Pair    | 0          | 0          | 0          |   0.0 |  0.00
Neigh   | 0          | 0          | 0          |   0.0 |  0.00
Comm    | 0          | 0          | 0          |   0.0 |  0.00
Output  | 0          | 0          | 0          |   0.0 |  0.00
Modify  | 0          | 0          | 0          |   0.0 |  0.00
Other   |            | 9.58e-07   |            |       |100.00

Nlocal:              2 ave           2 max           2 min
Histogram: 1 0 0 0 0 0 0 0 0 0
Nghost:            557 ave         557 max         557 min
Histogram: 1 0 0 0 0 0 0 0 0 0
Neighs:            136 ave         136 max         136 min
Histogram: 1 0 0 0 0 0 0 0 0 0

Total # of neighbors = 136
Ave neighs/atom = 68
Neighbor list builds = 0
Dangerous builds = 0
set atom * x 0.0 y 0.0 z 0.0
Setting atom values ...
  2 settings made for x
  2 settings made for y
  2 settings made for z
change_box all     x final 0 2.9689488146871312 y final 0 2.9689488146871312 z final 0 2.9689488146871312      xy final 0.0 xz final 0.0 yz final 0.0 units box
Changing box ...
  triclinic box = (0 0 0) to (2.9689488 2.9404012 2.9404012) with tilt (0 0 0)
  triclinic box = (0 0 0) to (2.9689488 2.9689488 2.9404012) with tilt (0 0 0)
  triclinic box = (0 0 0) to (2.9689488 2.9689488 2.9689488) with tilt (0 0 0)
  triclinic box = (0 0 0) to (2.9689488 2.9689488 2.9689488) with tilt (0 0 0)
  triclinic box = (0 0 0) to (2.9689488 2.9689488 2.9689488) with tilt (0 0 0)
  triclinic box = (0 0 0) to (2.9689488 2.9689488 2.9689488) with tilt (0 0 0)
echo none
run 0
WARNING: No fixes with time integration, atoms won't move (src/src/verlet.cpp:60)
Per MPI rank memory allocation (min/avg/max) = 3.244 | 3.244 | 3.244 Mbytes
    PotEng          Pxx           E_mol          E_coul    
-8.1929551     -175709.03      0              0            
Loop time of 1.125e-06 on 1 procs for 0 steps with 2 atoms

88.9% CPU use with 1 MPI tasks x no OpenMP threads

MPI task timing breakdown:
Section |  min time  |  avg time  |  max time  |%varavg| %total
---------------------------------------------------------------
Pair    | 0          | 0          | 0          |   0.0 |  0.00
Neigh   | 0          | 0          | 0          |   0.0 |  0.00
Comm    | 0          | 0          | 0          |   0.0 |  0.00
Output  | 0          | 0          | 0          |   0.0 |  0.00
Modify  | 0          | 0          | 0          |   0.0 |  0.00
Other   |            | 1.125e-06  |            |       |100.00

Nlocal:              2 ave           2 max           2 min
Histogram: 1 0 0 0 0 0 0 0 0 0
Nghost:            557 ave         557 max         557 min
Histogram: 1 0 0 0 0 0 0 0 0 0
Neighs:            136 ave         136 max         136 min
Histogram: 1 0 0 0 0 0 0 0 0 0

Total # of neighbors = 136
Ave neighs/atom = 68
Neighbor list builds = 0
Dangerous builds = 0
set atom * x 0.0 y 0.0 z 0.0
Setting atom values ...
  2 settings made for x
  2 settings made for y
  2 settings made for z
change_box all     x final 0 2.997496399443739 y final 0 2.997496399443739 z final 0 2.997496399443739      xy final 0.0 xz final 0.0 yz final 0.0 units box
Changing box ...
  triclinic box = (0 0 0) to (2.9974964 2.9689488 2.9689488) with tilt (0 0 0)
  triclinic box = (0 0 0) to (2.9974964 2.9974964 2.9689488) with tilt (0 0 0)
  triclinic box = (0 0 0) to (2.9974964 2.9974964 2.9974964) with tilt (0 0 0)
  triclinic box = (0 0 0) to (2.9974964 2.9974964 2.9974964) with tilt (0 0 0)
  triclinic box = (0 0 0) to (2.9974964 2.9974964 2.9974964) with tilt (0 0 0)
  triclinic box = (0 0 0) to (2.9974964 2.9974964 2.9974964) with tilt (0 0 0)
echo none
run 0
WARNING: No fixes with time integration, atoms won't move (src/src/verlet.cpp:60)
Per MPI rank memory allocation (min/avg/max) = 3.244 | 3.244 | 3.244 Mbytes
    PotEng          Pxx           E_mol          E_coul    
-8.1025424     -203178.68      0              0            
Loop time of 1.083e-06 on 1 procs for 0 steps with 2 atoms

184.7% CPU use with 1 MPI tasks x no OpenMP threads

MPI task timing breakdown:
Section |  min time  |  avg time  |  max time  |%varavg| %total
---------------------------------------------------------------
Pair    | 0          | 0          | 0          |   0.0 |  0.00
Neigh   | 0          | 0          | 0          |   0.0 |  0.00
Comm    | 0          | 0          | 0          |   0.0 |  0.00
Output  | 0          | 0          | 0          |   0.0 |  0.00
Modify  | 0          | 0          | 0          |   0.0 |  0.00
Other   |            | 1.083e-06  |            |       |100.00

Nlocal:              2 ave           2 max           2 min
Histogram: 1 0 0 0 0 0 0 0 0 0
Nghost:            557 ave         557 max         557 min
Histogram: 1 0 0 0 0 0 0 0 0 0
Neighs:            136 ave         136 max         136 min
Histogram: 1 0 0 0 0 0 0 0 0 0

Total # of neighbors = 136
Ave neighs/atom = 68
Neighbor list builds = 0
Dangerous builds = 0
set atom * x 0.0 y 0.0 z 0.0
Setting atom values ...
  2 settings made for x
  2 settings made for y
  2 settings made for z
change_box all     x final 0 3.0260439842003457 y final 0 3.0260439842003457 z final 0 3.0260439842003457      xy final 0.0 xz final 0.0 yz final 0.0 units box
Changing box ...
  triclinic box = (0 0 0) to (3.026044 2.9974964 2.9974964) with tilt (0 0 0)
  triclinic box = (0 0 0) to (3.026044 3.026044 2.9974964) with tilt (0 0 0)
  triclinic box = (0 0 0) to (3.026044 3.026044 3.026044) with tilt (0 0 0)
  triclinic box = (0 0 0) to (3.026044 3.026044 3.026044) with tilt (0 0 0)
  triclinic box = (0 0 0) to (3.026044 3.026044 3.026044) with tilt (0 0 0)
  triclinic box = (0 0 0) to (3.026044 3.026044 3.026044) with tilt (0 0 0)
echo none
run 0
WARNING: No fixes with time integration, atoms won't move (src/src/verlet.cpp:60)
Per MPI rank memory allocation (min/avg/max) = 3.244 | 3.244 | 3.244 Mbytes
    PotEng          Pxx           E_mol          E_coul    
-7.9985637     -225661.66      0              0            
Loop time of 9.17e-07 on 1 procs for 0 steps with 2 atoms

218.1% CPU use with 1 MPI tasks x no OpenMP threads

MPI task timing breakdown:
Section |  min time  |  avg time  |  max time  |%varavg| %total
---------------------------------------------------------------
Pair    | 0          | 0          | 0          |   0.0 |  0.00
Neigh   | 0          | 0          | 0          |   0.0 |  0.00
Comm    | 0          | 0          | 0          |   0.0 |  0.00
Output  | 0          | 0          | 0          |   0.0 |  0.00
Modify  | 0          | 0          | 0          |   0.0 |  0.00
Other   |            | 9.17e-07   |            |       |100.00

Nlocal:              2 ave           2 max           2 min
Histogram: 1 0 0 0 0 0 0 0 0 0
Nghost:            557 ave         557 max         557 min
Histogram: 1 0 0 0 0 0 0 0 0 0
Neighs:            136 ave         136 max         136 min
Histogram: 1 0 0 0 0 0 0 0 0 0

Total # of neighbors = 136
Ave neighs/atom = 68
Neighbor list builds = 0
Dangerous builds = 0
set atom * x 0.0 y 0.0 z 0.0
Setting atom values ...
  2 settings made for x
  2 settings made for y
  2 settings made for z
change_box all     x final 0 3.0545915689569534 y final 0 3.0545915689569534 z final 0 3.0545915689569534      xy final 0.0 xz final 0.0 yz final 0.0 units box
Changing box ...
  triclinic box = (0 0 0) to (3.0545916 3.026044 3.026044) with tilt (0 0 0)
  triclinic box = (0 0 0) to (3.0545916 3.0545916 3.026044) with tilt (0 0 0)
  triclinic box = (0 0 0) to (3.0545916 3.0545916 3.0545916) with tilt (0 0 0)
  triclinic box = (0 0 0) to (3.0545916 3.0545916 3.0545916) with tilt (0 0 0)
  triclinic box = (0 0 0) to (3.0545916 3.0545916 3.0545916) with tilt (0 0 0)
  triclinic box = (0 0 0) to (3.0545916 3.0545916 3.0545916) with tilt (0 0 0)
echo none
run 0
WARNING: No fixes with time integration, atoms won't move (src/src/verlet.cpp:60)
Per MPI rank memory allocation (min/avg/max) = 3.244 | 3.244 | 3.244 Mbytes
    PotEng          Pxx           E_mol          E_coul    
-7.8809441     -250756.86      0              0            
Loop time of 7.08e-07 on 1 procs for 0 steps with 2 atoms

0.0% CPU use with 1 MPI tasks x no OpenMP threads

MPI task timing breakdown:
Section |  min time  |  avg time  |  max time  |%varavg| %total
---------------------------------------------------------------
Pair    | 0          | 0          | 0          |   0.0 |  0.00
Neigh   | 0          | 0          | 0          |   0.0 |  0.00
Comm    | 0          | 0          | 0          |   0.0 |  0.00
Output  | 0          | 0          | 0          |   0.0 |  0.00
Modify  | 0          | 0          | 0          |   0.0 |  0.00
Other   |            | 7.08e-07   |            |       |100.00

Nlocal:              2 ave           2 max           2 min
Histogram: 1 0 0 0 0 0 0 0 0 0
Nghost:            339 ave         339 max         339 min
Histogram: 1 0 0 0 0 0 0 0 0 0
Neighs:            136 ave         136 max         136 min
Histogram: 1 0 0 0 0 0 0 0 0 0

Total # of neighbors = 136
Ave neighs/atom = 68
Neighbor list builds = 0
Dangerous builds = 0
set atom * x 0.0 y 0.0 z 0.0
Setting atom values ...
  2 settings made for x
  2 settings made for y
  2 settings made for z
change_box all     x final 0 3.0831391537135597 y final 0 3.0831391537135597 z final 0 3.0831391537135597      xy final 0.0 xz final 0.0 yz final 0.0 units box
Changing box ...
  triclinic box = (0 0 0) to (3.0831392 3.0545916 3.0545916) with tilt (0 0 0)
  triclinic box = (0 0 0) to (3.0831392 3.0831392 3.0545916) with tilt (0 0 0)
  triclinic box = (0 0 0) to (3.0831392 3.0831392 3.0831392) with tilt (0 0 0)
  triclinic box = (0 0 0) to (3.0831392 3.0831392 3.0831392) with tilt (0 0 0)
  triclinic box = (0 0 0) to (3.0831392 3.0831392 3.0831392) with tilt (0 0 0)
  triclinic box = (0 0 0) to (3.0831392 3.0831392 3.0831392) with tilt (0 0 0)
echo none
run 0
WARNING: No fixes with time integration, atoms won't move (src/src/verlet.cpp:60)
Per MPI rank memory allocation (min/avg/max) = 3.244 | 3.244 | 3.244 Mbytes
    PotEng          Pxx           E_mol          E_coul    
-7.7480563     -277113.91      0              0            
Loop time of 8.34e-07 on 1 procs for 0 steps with 2 atoms

119.9% CPU use with 1 MPI tasks x no OpenMP threads

MPI task timing breakdown:
Section |  min time  |  avg time  |  max time  |%varavg| %total
---------------------------------------------------------------
Pair    | 0          | 0          | 0          |   0.0 |  0.00
Neigh   | 0          | 0          | 0          |   0.0 |  0.00
Comm    | 0          | 0          | 0          |   0.0 |  0.00
Output  | 0          | 0          | 0          |   0.0 |  0.00
Modify  | 0          | 0          | 0          |   0.0 |  0.00
Other   |            | 8.34e-07   |            |       |100.00

Nlocal:              2 ave           2 max           2 min
Histogram: 1 0 0 0 0 0 0 0 0 0
Nghost:            339 ave         339 max         339 min
Histogram: 1 0 0 0 0 0 0 0 0 0
Neighs:            136 ave         136 max         136 min
Histogram: 1 0 0 0 0 0 0 0 0 0

Total # of neighbors = 136
Ave neighs/atom = 68
Neighbor list builds = 0
Dangerous builds = 0
set atom * x 0.0 y 0.0 z 0.0
Setting atom values ...
  2 settings made for x
  2 settings made for y
  2 settings made for z
change_box all     x final 0 3.1116867384701674 y final 0 3.1116867384701674 z final 0 3.1116867384701674      xy final 0.0 xz final 0.0 yz final 0.0 units box
Changing box ...
  triclinic box = (0 0 0) to (3.1116867 3.0831392 3.0831392) with tilt (0 0 0)
  triclinic box = (0 0 0) to (3.1116867 3.1116867 3.0831392) with tilt (0 0 0)
  triclinic box = (0 0 0) to (3.1116867 3.1116867 3.1116867) with tilt (0 0 0)
  triclinic box = (0 0 0) to (3.1116867 3.1116867 3.1116867) with tilt (0 0 0)
  triclinic box = (0 0 0) to (3.1116867 3.1116867 3.1116867) with tilt (0 0 0)
  triclinic box = (0 0 0) to (3.1116867 3.1116867 3.1116867) with tilt (0 0 0)
echo none
run 0
WARNING: No fixes with time integration, atoms won't move (src/src/verlet.cpp:60)
Per MPI rank memory allocation (min/avg/max) = 3.244 | 3.244 | 3.244 Mbytes
    PotEng          Pxx           E_mol          E_coul    
-7.5992972     -302666.41      0              0            
Loop time of 7.5e-07 on 1 procs for 0 steps with 2 atoms

266.7% CPU use with 1 MPI tasks x no OpenMP threads

MPI task timing breakdown:
Section |  min time  |  avg time  |  max time  |%varavg| %total
---------------------------------------------------------------
Pair    | 0          | 0          | 0          |   0.0 |  0.00
Neigh   | 0          | 0          | 0          |   0.0 |  0.00
Comm    | 0          | 0          | 0          |   0.0 |  0.00
Output  | 0          | 0          | 0          |   0.0 |  0.00
Modify  | 0          | 0          | 0          |   0.0 |  0.00
Other   |            | 7.5e-07    |            |       |100.00

Nlocal:              2 ave           2 max           2 min
Histogram: 1 0 0 0 0 0 0 0 0 0
Nghost:            339 ave         339 max         339 min
Histogram: 1 0 0 0 0 0 0 0 0 0
Neighs:            112 ave         112 max         112 min
Histogram: 1 0 0 0 0 0 0 0 0 0

Total # of neighbors = 112
Ave neighs/atom = 56
Neighbor list builds = 0
Dangerous builds = 0
set atom * x 0.0 y 0.0 z 0.0
Setting atom values ...
  2 settings made for x
  2 settings made for y
  2 settings made for z
change_box all     x final 0 3.1402343232267738 y final 0 3.1402343232267738 z final 0 3.1402343232267738      xy final 0.0 xz final 0.0 yz final 0.0 units box
Changing box ...
  triclinic box = (0 0 0) to (3.1402343 3.1116867 3.1116867) with tilt (0 0 0)
  triclinic box = (0 0 0) to (3.1402343 3.1402343 3.1116867) with tilt (0 0 0)
  triclinic box = (0 0 0) to (3.1402343 3.1402343 3.1402343) with tilt (0 0 0)
  triclinic box = (0 0 0) to (3.1402343 3.1402343 3.1402343) with tilt (0 0 0)
  triclinic box = (0 0 0) to (3.1402343 3.1402343 3.1402343) with tilt (0 0 0)
  triclinic box = (0 0 0) to (3.1402343 3.1402343 3.1402343) with tilt (0 0 0)
echo none
run 0
WARNING: No fixes with time integration, atoms won't move (src/src/verlet.cpp:60)
Per MPI rank memory allocation (min/avg/max) = 3.244 | 3.244 | 3.244 Mbytes
    PotEng          Pxx           E_mol          E_coul    
-7.4349975     -325867.88      0              0            
Loop time of 7.91e-07 on 1 procs for 0 steps with 2 atoms

252.8% CPU use with 1 MPI tasks x no OpenMP threads

MPI task timing breakdown:
Section |  min time  |  avg time  |  max time  |%varavg| %total
---------------------------------------------------------------
Pair    | 0          | 0          | 0          |   0.0 |  0.00
Neigh   | 0          | 0          | 0          |   0.0 |  0.00
Comm    | 0          | 0          | 0          |   0.0 |  0.00
Output  | 0          | 0          | 0          |   0.0 |  0.00
Modify  | 0          | 0          | 0          |   0.0 |  0.00
Other   |            | 7.91e-07   |            |       |100.00

Nlocal:              2 ave           2 max           2 min
Histogram: 1 0 0 0 0 0 0 0 0 0
Nghost:            339 ave         339 max         339 min
Histogram: 1 0 0 0 0 0 0 0 0 0
Neighs:            112 ave         112 max         112 min
Histogram: 1 0 0 0 0 0 0 0 0 0

Total # of neighbors = 112
Ave neighs/atom = 56
Neighbor list builds = 0
Dangerous builds = 0
set atom * x 0.0 y 0.0 z 0.0
Setting atom values ...
  2 settings made for x
  2 settings made for y
  2 settings made for z
change_box all     x final 0 8.56427542698211 y final 0 8.56427542698211 z final 0 8.56427542698211      xy final 0.0 xz final 0.0 yz final 0.0 units box
Changing box ...
  triclinic box = (0 0 0) to (8.5642754 3.1402343 3.1402343) with tilt (0 0 0)
  triclinic box = (0 0 0) to (8.5642754 8.5642754 3.1402343) with tilt (0 0 0)
  triclinic box = (0 0 0) to (8.5642754 8.5642754 8.5642754) with tilt (0 0 0)
  triclinic box = (0 0 0) to (8.5642754 8.5642754 8.5642754) with tilt (0 0 0)
  triclinic box = (0 0 0) to (8.5642754 8.5642754 8.5642754) with tilt (0 0 0)
  triclinic box = (0 0 0) to (8.5642754 8.5642754 8.5642754) with tilt (0 0 0)
echo none
Created 52 atoms
  using lattice units in triclinic box = (0 0 0) to (8.5642754 8.5642754 8.5642754) with tilt (0 0 0)
  create_atoms CPU = 0.000 seconds
Setting atom values ...
  1 settings made for type
Setting atom values ...
  1 settings made for type
Setting atom values ...
  1 settings made for type
Setting atom values ...
  1 settings made for type
Setting atom values ...
  1 settings made for type
Setting atom values ...
  1 settings made for type
Setting atom values ...
  1 settings made for type
Setting atom values ...
  1 settings made for type
Setting atom values ...
  1 settings made for type
Setting atom values ...
  1 settings made for type
Setting atom values ...
  1 settings made for type
Setting atom values ...
  1 settings made for type
Setting atom values ...
  1 settings made for type
Setting atom values ...
  1 settings made for type
Setting atom values ...
  1 settings made for type
Setting atom values ...
  1 settings made for type
Setting atom values ...
  1 settings made for type
Setting atom values ...
  1 settings made for type
Setting atom values ...
  1 settings made for type
Setting atom values ...
  1 settings made for type
Setting atom values ...
  1 settings made for type
Setting atom values ...
  1 settings made for type
Setting atom values ...
  1 settings made for type
Setting atom values ...
  1 settings made for type
Setting atom values ...
  1 settings made for type
Setting atom values ...
  1 settings made for type
Setting atom values ...
  1 settings made for type
Setting atom values ...
  1 settings made for type
Setting atom values ...
  1 settings made for type
Setting atom values ...
  1 settings made for type
Setting atom values ...
  1 settings made for type
Setting atom values ...
  1 settings made for type
Setting atom values ...
  1 settings made for type
Setting atom values ...
  1 settings made for type
Setting atom values ...
  1 settings made for type
Setting atom values ...
  1 settings made for type
Setting atom values ...
  1 settings made for type
Setting atom values ...
  1 settings made for type
Setting atom values ...
  1 settings made for type
Setting atom values ...
  1 settings made for type
Setting atom values ...
  1 settings made for type
Setting atom values ...
  1 settings made for type
Setting atom values ...
  1 settings made for type
Setting atom values ...
  1 settings made for type
Setting atom values ...
  1 settings made for type
Setting atom values ...
  1 settings made for type
Setting atom values ...
  1 settings made for type
Setting atom values ...
  1 settings made for type
Setting atom values ...
  1 settings made for type
Setting atom values ...
  1 settings made for type
Setting atom values ...
  1 settings made for type
Setting atom values ...
  1 settings made for type
run 0
WARNING: No fixes with time integration, atoms won't move (src/src/verlet.cpp:60)
Per MPI rank memory allocation (min/avg/max) = 3.251 | 3.251 | 3.251 Mbytes
    PotEng          Pxx           E_mol          E_coul    
-225.99935     -41.131606      0              0            
Loop time of 1.166e-06 on 1 procs for 0 steps with 54 atoms

85.8% CPU use with 1 MPI tasks x no OpenMP threads

MPI task timing breakdown:
Section |  min time  |  avg time  |  max time  |%varavg| %total
---------------------------------------------------------------
Pair    | 0          | 0          | 0          |   0.0 |  0.00
Neigh   | 0          | 0          | 0          |   0.0 |  0.00
Comm    | 0          | 0          | 0          |   0.0 |  0.00
Output  | 0          | 0          | 0          |   0.0 |  0.00
Modify  | 0          | 0          | 0          |   0.0 |  0.00
Other   |            | 1.166e-06  |            |       |100.00

Nlocal:             54 ave          54 max          54 min
Histogram: 1 0 0 0 0 0 0 0 0 0
Nghost:           1187 ave        1187 max        1187 min
Histogram: 1 0 0 0 0 0 0 0 0 0
Neighs:           4536 ave        4536 max        4536 min
Histogram: 1 0 0 0 0 0 0 0 0 0

Total # of neighbors = 4536
Ave neighs/atom = 84
Neighbor list builds = 0
Dangerous builds = 0
set atom * x 0.0 y 0.0 z 0.0
Setting atom values ...
  54 settings made for x
  54 settings made for y
  54 settings made for z
change_box all     x final 0 8.392989918442469 y final 0 8.56427542698211 z final 0 8.56427542698211      xy final 0.0 xz final 0.0 yz final 0.0 units box
Changing box ...
  triclinic box = (0 0 0) to (8.3929899 8.5642754 8.5642754) with tilt (0 0 0)
  triclinic box = (0 0 0) to (8.3929899 8.5642754 8.5642754) with tilt (0 0 0)
  triclinic box = (0 0 0) to (8.3929899 8.5642754 8.5642754) with tilt (0 0 0)
  triclinic box = (0 0 0) to (8.3929899 8.5642754 8.5642754) with tilt (0 0 0)
  triclinic box = (0 0 0) to (8.3929899 8.5642754 8.5642754) with tilt (0 0 0)
  triclinic box = (0 0 0) to (8.3929899 8.5642754 8.5642754) with tilt (0 0 0)
echo none
run 0
WARNING: No fixes with time integration, atoms won't move (src/src/verlet.cpp:60)
Per MPI rank memory allocation (min/avg/max) = 3.251 | 3.251 | 3.251 Mbytes
    PotEng          Pxx           E_mol          E_coul    
-225.76791      58122.114      0              0            
Loop time of 1.083e-06 on 1 procs for 0 steps with 54 atoms

0.0% CPU use with 1 MPI tasks x no OpenMP threads

MPI task timing breakdown:
Section |  min time  |  avg time  |  max time  |%varavg| %total
---------------------------------------------------------------
Pair    | 0          | 0          | 0          |   0.0 |  0.00
Neigh   | 0          | 0          | 0          |   0.0 |  0.00
Comm    | 0          | 0          | 0          |   0.0 |  0.00
Output  | 0          | 0          | 0          |   0.0 |  0.00
Modify  | 0          | 0          | 0          |   0.0 |  0.00
Other   |            | 1.083e-06  |            |       |100.00

Nlocal:             54 ave          54 max          54 min
Histogram: 1 0 0 0 0 0 0 0 0 0
Nghost:           1187 ave        1187 max        1187 min
Histogram: 1 0 0 0 0 0 0 0 0 0
Neighs:           4536 ave        4536 max        4536 min
Histogram: 1 0 0 0 0 0 0 0 0 0

Total # of neighbors = 4536
Ave neighs/atom = 84
Neighbor list builds = 0
Dangerous builds = 0
set atom * x 0.0 y 0.0 z 0.0
Setting atom values ...
  54 settings made for x
  54 settings made for y
  54 settings made for z
change_box all     x final 0 8.478632672712289 y final 0 8.56427542698211 z final 0 8.56427542698211      xy final 0.0 xz final 0.0 yz final 0.0 units box
Changing box ...
  triclinic box = (0 0 0) to (8.4786327 8.5642754 8.5642754) with tilt (0 0 0)
  triclinic box = (0 0 0) to (8.4786327 8.5642754 8.5642754) with tilt (0 0 0)
  triclinic box = (0 0 0) to (8.4786327 8.5642754 8.5642754) with tilt (0 0 0)
  triclinic box = (0 0 0) to (8.4786327 8.5642754 8.5642754) with tilt (0 0 0)
  triclinic box = (0 0 0) to (8.4786327 8.5642754 8.5642754) with tilt (0 0 0)
  triclinic box = (0 0 0) to (8.4786327 8.5642754 8.5642754) with tilt (0 0 0)
echo none
run 0
WARNING: No fixes with time integration, atoms won't move (src/src/verlet.cpp:60)
Per MPI rank memory allocation (min/avg/max) = 3.251 | 3.251 | 3.251 Mbytes
    PotEng          Pxx           E_mol          E_coul    
-225.94069      29768.133      0              0            
Loop time of 1.875e-06 on 1 procs for 0 steps with 54 atoms

160.0% CPU use with 1 MPI tasks x no OpenMP threads

MPI task timing breakdown:
Section |  min time  |  avg time  |  max time  |%varavg| %total
---------------------------------------------------------------
Pair    | 0          | 0          | 0          |   0.0 |  0.00
Neigh   | 0          | 0          | 0          |   0.0 |  0.00
Comm    | 0          | 0          | 0          |   0.0 |  0.00
Output  | 0          | 0          | 0          |   0.0 |  0.00
Modify  | 0          | 0          | 0          |   0.0 |  0.00
Other   |            | 1.875e-06  |            |       |100.00

Nlocal:             54 ave          54 max          54 min
Histogram: 1 0 0 0 0 0 0 0 0 0
Nghost:           1187 ave        1187 max        1187 min
Histogram: 1 0 0 0 0 0 0 0 0 0
Neighs:           4536 ave        4536 max        4536 min
Histogram: 1 0 0 0 0 0 0 0 0 0

Total # of neighbors = 4536
Ave neighs/atom = 84
Neighbor list builds = 0
Dangerous builds = 0
set atom * x 0.0 y 0.0 z 0.0
Setting atom values ...
  54 settings made for x
  54 settings made for y
  54 settings made for z
change_box all     x final 0 8.56427542698211 y final 0 8.56427542698211 z final 0 8.56427542698211      xy final 0.0 xz final 0.0 yz final 0.0 units box
Changing box ...
  triclinic box = (0 0 0) to (8.5642754 8.5642754 8.5642754) with tilt (0 0 0)
  triclinic box = (0 0 0) to (8.5642754 8.5642754 8.5642754) with tilt (0 0 0)
  triclinic box = (0 0 0) to (8.5642754 8.5642754 8.5642754) with tilt (0 0 0)
  triclinic box = (0 0 0) to (8.5642754 8.5642754 8.5642754) with tilt (0 0 0)
  triclinic box = (0 0 0) to (8.5642754 8.5642754 8.5642754) with tilt (0 0 0)
  triclinic box = (0 0 0) to (8.5642754 8.5642754 8.5642754) with tilt (0 0 0)
echo none
run 0
WARNING: No fixes with time integration, atoms won't move (src/src/verlet.cpp:60)
Per MPI rank memory allocation (min/avg/max) = 3.251 | 3.251 | 3.251 Mbytes
    PotEng          Pxx           E_mol          E_coul    
-225.99935     -41.131606      0              0            
Loop time of 1.042e-06 on 1 procs for 0 steps with 54 atoms

96.0% CPU use with 1 MPI tasks x no OpenMP threads

MPI task timing breakdown:
Section |  min time  |  avg time  |  max time  |%varavg| %total
---------------------------------------------------------------
Pair    | 0          | 0          | 0          |   0.0 |  0.00
Neigh   | 0          | 0          | 0          |   0.0 |  0.00
Comm    | 0          | 0          | 0          |   0.0 |  0.00
Output  | 0          | 0          | 0          |   0.0 |  0.00
Modify  | 0          | 0          | 0          |   0.0 |  0.00
Other   |            | 1.042e-06  |            |       |100.00

Nlocal:             54 ave          54 max          54 min
Histogram: 1 0 0 0 0 0 0 0 0 0
Nghost:           1187 ave        1187 max        1187 min
Histogram: 1 0 0 0 0 0 0 0 0 0
Neighs:           4536 ave        4536 max        4536 min
Histogram: 1 0 0 0 0 0 0 0 0 0

Total # of neighbors = 4536
Ave neighs/atom = 84
Neighbor list builds = 0
Dangerous builds = 0
set atom * x 0.0 y 0.0 z 0.0
Setting atom values ...
  54 settings made for x
  54 settings made for y
  54 settings made for z
change_box all     x final 0 8.649918181251932 y final 0 8.56427542698211 z final 0 8.56427542698211      xy final 0.0 xz final 0.0 yz final 0.0 units box
Changing box ...
  triclinic box = (0 0 0) to (8.6499182 8.5642754 8.5642754) with tilt (0 0 0)
  triclinic box = (0 0 0) to (8.6499182 8.5642754 8.5642754) with tilt (0 0 0)
  triclinic box = (0 0 0) to (8.6499182 8.5642754 8.5642754) with tilt (0 0 0)
  triclinic box = (0 0 0) to (8.6499182 8.5642754 8.5642754) with tilt (0 0 0)
  triclinic box = (0 0 0) to (8.6499182 8.5642754 8.5642754) with tilt (0 0 0)
  triclinic box = (0 0 0) to (8.6499182 8.5642754 8.5642754) with tilt (0 0 0)
echo none
run 0
WARNING: No fixes with time integration, atoms won't move (src/src/verlet.cpp:60)
Per MPI rank memory allocation (min/avg/max) = 3.251 | 3.251 | 3.251 Mbytes
    PotEng          Pxx           E_mol          E_coul    
-225.93887     -30988.622      0              0            
Loop time of 1e-06 on 1 procs for 0 steps with 54 atoms

100.0% CPU use with 1 MPI tasks x no OpenMP threads

MPI task timing breakdown:
Section |  min time  |  avg time  |  max time  |%varavg| %total
---------------------------------------------------------------
Pair    | 0          | 0          | 0          |   0.0 |  0.00
Neigh   | 0          | 0          | 0          |   0.0 |  0.00
Comm    | 0          | 0          | 0          |   0.0 |  0.00
Output  | 0          | 0          | 0          |   0.0 |  0.00
Modify  | 0          | 0          | 0          |   0.0 |  0.00
Other   |            | 1e-06      |            |       |100.00

Nlocal:             54 ave          54 max          54 min
Histogram: 1 0 0 0 0 0 0 0 0 0
Nghost:           1187 ave        1187 max        1187 min
Histogram: 1 0 0 0 0 0 0 0 0 0
Neighs:           4536 ave        4536 max        4536 min
Histogram: 1 0 0 0 0 0 0 0 0 0

Total # of neighbors = 4536
Ave neighs/atom = 84
Neighbor list builds = 0
Dangerous builds = 0
set atom * x 0.0 y 0.0 z 0.0
Setting atom values ...
  54 settings made for x
  54 settings made for y
  54 settings made for z
change_box all     x final 0 8.735560935521752 y final 0 8.56427542698211 z final 0 8.56427542698211      xy final 0.0 xz final 0.0 yz final 0.0 units box
Changing box ...
  triclinic box = (0 0 0) to (8.7355609 8.5642754 8.5642754) with tilt (0 0 0)
  triclinic box = (0 0 0) to (8.7355609 8.5642754 8.5642754) with tilt (0 0 0)
  triclinic box = (0 0 0) to (8.7355609 8.5642754 8.5642754) with tilt (0 0 0)
  triclinic box = (0 0 0) to (8.7355609 8.5642754 8.5642754) with tilt (0 0 0)
  triclinic box = (0 0 0) to (8.7355609 8.5642754 8.5642754) with tilt (0 0 0)
  triclinic box = (0 0 0) to (8.7355609 8.5642754 8.5642754) with tilt (0 0 0)
echo none
run 0
WARNING: No fixes with time integration, atoms won't move (src/src/verlet.cpp:60)
Per MPI rank memory allocation (min/avg/max) = 3.251 | 3.251 | 3.251 Mbytes
    PotEng          Pxx           E_mol          E_coul    
-225.75527     -62753.77       0              0            
Loop time of 1.167e-06 on 1 procs for 0 steps with 54 atoms

85.7% CPU use with 1 MPI tasks x no OpenMP threads

MPI task timing breakdown:
Section |  min time  |  avg time  |  max time  |%varavg| %total
---------------------------------------------------------------
Pair    | 0          | 0          | 0          |   0.0 |  0.00
Neigh   | 0          | 0          | 0          |   0.0 |  0.00
Comm    | 0          | 0          | 0          |   0.0 |  0.00
Output  | 0          | 0          | 0          |   0.0 |  0.00
Modify  | 0          | 0          | 0          |   0.0 |  0.00
Other   |            | 1.167e-06  |            |       |100.00

Nlocal:             54 ave          54 max          54 min
Histogram: 1 0 0 0 0 0 0 0 0 0
Nghost:           1187 ave        1187 max        1187 min
Histogram: 1 0 0 0 0 0 0 0 0 0
Neighs:           4536 ave        4536 max        4536 min
Histogram: 1 0 0 0 0 0 0 0 0 0

Total # of neighbors = 4536
Ave neighs/atom = 84
Neighbor list builds = 0
Dangerous builds = 0
set atom * x 0.0 y 0.0 z 0.0
Setting atom values ...
  54 settings made for x
  54 settings made for y
  54 settings made for z
change_box all     x final 0 8.56427542698211 y final 0 8.564292555515836 z final 0 8.564258298482642      xy final 0.0 xz final 0.0 yz final 0.017128516596965283 units box
Changing box ...
  triclinic box = (0 0 0) to (8.5642754 8.5642754 8.5642754) with tilt (0 0 0)
  triclinic box = (0 0 0) to (8.5642754 8.5642926 8.5642754) with tilt (0 0 0)
  triclinic box = (0 0 0) to (8.5642754 8.5642926 8.5642583) with tilt (0 0 0)
  triclinic box = (0 0 0) to (8.5642754 8.5642926 8.5642583) with tilt (0 0 0)
  triclinic box = (0 0 0) to (8.5642754 8.5642926 8.5642583) with tilt (0 0 0)
  triclinic box = (0 0 0) to (8.5642754 8.5642926 8.5642583) with tilt (0 0 0.017128517)
echo none
run 0
WARNING: No fixes with time integration, atoms won't move (src/src/verlet.cpp:60)
Per MPI rank memory allocation (min/avg/max) = 3.251 | 3.251 | 3.251 Mbytes
    PotEng          Pxx           E_mol          E_coul    
-225.99839     -30.978842      0              0            
Loop time of 8.33e-07 on 1 procs for 0 steps with 54 atoms

120.0% CPU use with 1 MPI tasks x no OpenMP threads

MPI task timing breakdown:
Section |  min time  |  avg time  |  max time  |%varavg| %total
---------------------------------------------------------------
Pair    | 0          | 0          | 0          |   0.0 |  0.00
Neigh   | 0          | 0          | 0          |   0.0 |  0.00
Comm    | 0          | 0          | 0          |   0.0 |  0.00
Output  | 0          | 0          | 0          |   0.0 |  0.00
Modify  | 0          | 0          | 0          |   0.0 |  0.00
Other   |            | 8.33e-07   |            |       |100.00

Nlocal:             54 ave          54 max          54 min
Histogram: 1 0 0 0 0 0 0 0 0 0
Nghost:           1187 ave        1187 max        1187 min
Histogram: 1 0 0 0 0 0 0 0 0 0
Neighs:           4536 ave        4536 max        4536 min
Histogram: 1 0 0 0 0 0 0 0 0 0

Total # of neighbors = 4536
Ave neighs/atom = 84
Neighbor list builds = 0
Dangerous builds = 0
set atom * x 0.0 y 0.0 z 0.0
Setting atom values ...
  54 settings made for x
  54 settings made for y
  54 settings made for z
change_box all     x final 0 8.56427542698211 y final 0 8.564456345389575 z final 0 8.564094512396426      xy final 0.0 xz final 0.0 yz final 0.05566661433057678 units box
Changing box ...
  triclinic box = (0 0 0) to (8.5642754 8.5642926 8.5642583) with tilt (0 0 0.017128517)
  triclinic box = (0 0 0) to (8.5642754 8.5644563 8.5642583) with tilt (0 0 0.017128517)
  triclinic box = (0 0 0) to (8.5642754 8.5644563 8.5640945) with tilt (0 0 0.017128517)
  triclinic box = (0 0 0) to (8.5642754 8.5644563 8.5640945) with tilt (0 0 0.017128517)
  triclinic box = (0 0 0) to (8.5642754 8.5644563 8.5640945) with tilt (0 0 0.017128517)
  triclinic box = (0 0 0) to (8.5642754 8.5644563 8.5640945) with tilt (0 0 0.055666614)
echo none
run 0
WARNING: No fixes with time integration, atoms won't move (src/src/verlet.cpp:60)
Per MPI rank memory allocation (min/avg/max) = 3.251 | 3.251 | 3.251 Mbytes
    PotEng          Pxx           E_mol          E_coul    
-225.98918      66.16751       0              0            
Loop time of 7.08e-07 on 1 procs for 0 steps with 54 atoms

141.2% CPU use with 1 MPI tasks x no OpenMP threads

MPI task timing breakdown:
Section |  min time  |  avg time  |  max time  |%varavg| %total
---------------------------------------------------------------
Pair    | 0          | 0          | 0          |   0.0 |  0.00
Neigh   | 0          | 0          | 0          |   0.0 |  0.00
Comm    | 0          | 0          | 0          |   0.0 |  0.00
Output  | 0          | 0          | 0          |   0.0 |  0.00
Modify  | 0          | 0          | 0          |   0.0 |  0.00
Other   |            | 7.08e-07   |            |       |100.00

Nlocal:             54 ave          54 max          54 min
Histogram: 1 0 0 0 0 0 0 0 0 0
Nghost:           1187 ave        1187 max        1187 min
Histogram: 1 0 0 0 0 0 0 0 0 0
Neighs:           4536 ave        4536 max        4536 min
Histogram: 1 0 0 0 0 0 0 0 0 0

Total # of neighbors = 4536
Ave neighs/atom = 84
Neighbor list builds = 0
Dangerous builds = 0
set atom * x 0.0 y 0.0 z 0.0
Setting atom values ...
  54 settings made for x
  54 settings made for y
  54 settings made for z
change_box all     x final 0 8.56427542698211 y final 0 8.564793549972697 z final 0 8.56375733533512      xy final 0.0 xz final 0.0 yz final 0.09420133068868636 units box
Changing box ...
  triclinic box = (0 0 0) to (8.5642754 8.5644563 8.5640945) with tilt (0 0 0.055666614)
  triclinic box = (0 0 0) to (8.5642754 8.5647935 8.5640945) with tilt (0 0 0.055666614)
  triclinic box = (0 0 0) to (8.5642754 8.5647935 8.5637573) with tilt (0 0 0.055666614)
  triclinic box = (0 0 0) to (8.5642754 8.5647935 8.5637573) with tilt (0 0 0.055666614)
  triclinic box = (0 0 0) to (8.5642754 8.5647935 8.5637573) with tilt (0 0 0.055666614)
  triclinic box = (0 0 0) to (8.5642754 8.5647935 8.5637573) with tilt (0 0 0.094201331)
echo none
run 0
WARNING: No fixes with time integration, atoms won't move (src/src/verlet.cpp:60)
Per MPI rank memory allocation (min/avg/max) = 3.251 | 3.251 | 3.251 Mbytes
    PotEng          Pxx           E_mol          E_coul    
-225.97023      266.14585      0              0            
Loop time of 8.75e-07 on 1 procs for 0 steps with 54 atoms

228.6% CPU use with 1 MPI tasks x no OpenMP threads

MPI task timing breakdown:
Section |  min time  |  avg time  |  max time  |%varavg| %total
---------------------------------------------------------------
Pair    | 0          | 0          | 0          |   0.0 |  0.00
Neigh   | 0          | 0          | 0          |   0.0 |  0.00
Comm    | 0          | 0          | 0          |   0.0 |  0.00
Output  | 0          | 0          | 0          |   0.0 |  0.00
Modify  | 0          | 0          | 0          |   0.0 |  0.00
Other   |            | 8.75e-07   |            |       |100.00

Nlocal:             54 ave          54 max          54 min
Histogram: 1 0 0 0 0 0 0 0 0 0
Nghost:           1187 ave        1187 max        1187 min
Histogram: 1 0 0 0 0 0 0 0 0 0
Neighs:           4536 ave        4536 max        4536 min
Histogram: 1 0 0 0 0 0 0 0 0 0

Total # of neighbors = 4536
Ave neighs/atom = 84
Neighbor list builds = 0
Dangerous builds = 0
set atom * x 0.0 y 0.0 z 0.0
Setting atom values ...
  54 settings made for x
  54 settings made for y
  54 settings made for z
change_box all     x final 0 8.56427542698211 y final 0 8.565304148783884 z final 0 8.56324682873328      xy final 0.0 xz final 0.0 yz final 0.13273032584536584 units box
Changing box ...
  triclinic box = (0 0 0) to (8.5642754 8.5647935 8.5637573) with tilt (0 0 0.094201331)
  triclinic box = (0 0 0) to (8.5642754 8.5653041 8.5637573) with tilt (0 0 0.094201331)
  triclinic box = (0 0 0) to (8.5642754 8.5653041 8.5632468) with tilt (0 0 0.094201331)
  triclinic box = (0 0 0) to (8.5642754 8.5653041 8.5632468) with tilt (0 0 0.094201331)
  triclinic box = (0 0 0) to (8.5642754 8.5653041 8.5632468) with tilt (0 0 0.094201331)
  triclinic box = (0 0 0) to (8.5642754 8.5653041 8.5632468) with tilt (0 0 0.13273033)
echo none
run 0
WARNING: No fixes with time integration, atoms won't move (src/src/verlet.cpp:60)
Per MPI rank memory allocation (min/avg/max) = 3.251 | 3.251 | 3.251 Mbytes
    PotEng          Pxx           E_mol          E_coul    
-225.94154      568.93478      0              0            
Loop time of 1e-06 on 1 procs for 0 steps with 54 atoms

100.0% CPU use with 1 MPI tasks x no OpenMP threads

MPI task timing breakdown:
Section |  min time  |  avg time  |  max time  |%varavg| %total
---------------------------------------------------------------
Pair    | 0          | 0          | 0          |   0.0 |  0.00
Neigh   | 0          | 0          | 0          |   0.0 |  0.00
Comm    | 0          | 0          | 0          |   0.0 |  0.00
Output  | 0          | 0          | 0          |   0.0 |  0.00
Modify  | 0          | 0          | 0          |   0.0 |  0.00
Other   |            | 1e-06      |            |       |100.00

Nlocal:             54 ave          54 max          54 min
Histogram: 1 0 0 0 0 0 0 0 0 0
Nghost:           1187 ave        1187 max        1187 min
Histogram: 1 0 0 0 0 0 0 0 0 0
Neighs:           4536 ave        4536 max        4536 min
Histogram: 1 0 0 0 0 0 0 0 0 0

Total # of neighbors = 4536
Ave neighs/atom = 84
Neighbor list builds = 0
Dangerous builds = 0
set atom * x 0.0 y 0.0 z 0.0
Setting atom values ...
  54 settings made for x
  54 settings made for y
  54 settings made for z
change_box all     x final 0 8.56427542698211 y final 0 8.565988110816246 z final 0 8.562563085582013      xy final 0.0 xz final 0.0 yz final 0.17125126171164032 units box
Changing box ...
  triclinic box = (0 0 0) to (8.5642754 8.5653041 8.5632468) with tilt (0 0 0.13273033)
  triclinic box = (0 0 0) to (8.5642754 8.5659881 8.5632468) with tilt (0 0 0.13273033)
  triclinic box = (0 0 0) to (8.5642754 8.5659881 8.5625631) with tilt (0 0 0.13273033)
  triclinic box = (0 0 0) to (8.5642754 8.5659881 8.5625631) with tilt (0 0 0.13273033)
  triclinic box = (0 0 0) to (8.5642754 8.5659881 8.5625631) with tilt (0 0 0.13273033)
  triclinic box = (0 0 0) to (8.5642754 8.5659881 8.5625631) with tilt (0 0 0.17125126)
echo none
run 0
WARNING: No fixes with time integration, atoms won't move (src/src/verlet.cpp:60)
Per MPI rank memory allocation (min/avg/max) = 3.251 | 3.251 | 3.251 Mbytes
    PotEng          Pxx           E_mol          E_coul    
-225.9031       974.49773      0              0            
Loop time of 8.75e-07 on 1 procs for 0 steps with 54 atoms

0.0% CPU use with 1 MPI tasks x no OpenMP threads

MPI task timing breakdown:
Section |  min time  |  avg time  |  max time  |%varavg| %total
---------------------------------------------------------------
Pair    | 0          | 0          | 0          |   0.0 |  0.00
Neigh   | 0          | 0          | 0          |   0.0 |  0.00
Comm    | 0          | 0          | 0          |   0.0 |  0.00
Output  | 0          | 0          | 0          |   0.0 |  0.00
Modify  | 0          | 0          | 0          |   0.0 |  0.00
Other   |            | 8.75e-07   |            |       |100.00

Nlocal:             54 ave          54 max          54 min
Histogram: 1 0 0 0 0 0 0 0 0 0
Nghost:           1187 ave        1187 max        1187 min
Histogram: 1 0 0 0 0 0 0 0 0 0
Neighs:           4536 ave        4536 max        4536 min
Histogram: 1 0 0 0 0 0 0 0 0 0

Total # of neighbors = 4536
Ave neighs/atom = 84
Neighbor list builds = 0
Dangerous builds = 0
set atom * x 0.0 y 0.0 z 0.0
Setting atom values ...
  54 settings made for x
  54 settings made for y
  54 settings made for z
change_box all     x final 0 11.419033902642813 y final 0 11.419033902642813 z final 0 11.419033902642813      xy final 0.0 xz final 0.0 yz final 0.0 units box
Changing box ...
  triclinic box = (0 0 0) to (11.419034 8.5659881 8.5625631) with tilt (0 0 0.17125126)
  triclinic box = (0 0 0) to (11.419034 11.419034 8.5625631) with tilt (0 0 0.17125126)
  triclinic box = (0 0 0) to (11.419034 11.419034 11.419034) with tilt (0 0 0.17125126)
  triclinic box = (0 0 0) to (11.419034 11.419034 11.419034) with tilt (0 0 0.17125126)
  triclinic box = (0 0 0) to (11.419034 11.419034 11.419034) with tilt (0 0 0.17125126)
  triclinic box = (0 0 0) to (11.419034 11.419034 11.419034) with tilt (0 0 0)
echo none
Created 74 atoms
  using lattice units in triclinic box = (0 0 0) to (11.419034 11.419034 11.419034) with tilt (0 0 0)
  create_atoms CPU = 0.000 seconds
Setting atom values ...
  1 settings made for type
Setting atom values ...
  1 settings made for type
Setting atom values ...
  1 settings made for type
Setting atom values ...
  1 settings made for type
Setting atom values ...
  1 settings made for type
Setting atom values ...
  1 settings made for type
Setting atom values ...
  1 settings made for type
Setting atom values ...
  1 settings made for type
Setting atom values ...
  1 settings made for type
Setting atom values ...
  1 settings made for type
Setting atom values ...
  1 settings made for type
Setting atom values ...
  1 settings made for type
Setting atom values ...
  1 settings made for type
Setting atom values ...
  1 settings made for type
Setting atom values ...
  1 settings made for type
Setting atom values ...
  1 settings made for type
Setting atom values ...
  1 settings made for type
Setting atom values ...
  1 settings made for type
Setting atom values ...
  1 settings made for type
Setting atom values ...
  1 settings made for type
Setting atom values ...
  1 settings made for type
Setting atom values ...
  1 settings made for type
Setting atom values ...
  1 settings made for type
Setting atom values ...
  1 settings made for type
Setting atom values ...
  1 settings made for type
Setting atom values ...
  1 settings made for type
Setting atom values ...
  1 settings made for type
Setting atom values ...
  1 settings made for type
Setting atom values ...
  1 settings made for type
Setting atom values ...
  1 settings made for type
Setting atom values ...
  1 settings made for type
Setting atom values ...
  1 settings made for type
Setting atom values ...
  1 settings made for type
Setting atom values ...
  1 settings made for type
Setting atom values ...
  1 settings made for type
Setting atom values ...
  1 settings made for type
Setting atom values ...
  1 settings made for type
Setting atom values ...
  1 settings made for type
Setting atom values ...
  1 settings made for type
Setting atom values ...
  1 settings made for type
Setting atom values ...
  1 settings made for type
Setting atom values ...
  1 settings made for type
Setting atom values ...
  1 settings made for type
Setting atom values ...
  1 settings made for type
Setting atom values ...
  1 settings made for type
Setting atom values ...
  1 settings made for type
Setting atom values ...
  1 settings made for type
Setting atom values ...
[...]
  triclinic box = (0 0 0) to (8.0792602 9.8950325 30.507116) with tilt (-8.0792602 0 0)
echo none
run 0
Per MPI rank memory allocation (min/avg/max) = 3.267 | 3.267 | 3.267 Mbytes
    PotEng          Pxx           E_mol          E_coul    
-315.4566      -2895.2554      0              0            
Loop time of 8.33e-07 on 1 procs for 0 steps with 80 atoms

360.1% CPU use with 1 MPI tasks x no OpenMP threads

MPI task timing breakdown:
Section |  min time  |  avg time  |  max time  |%varavg| %total
---------------------------------------------------------------
Pair    | 0          | 0          | 0          |   0.0 |  0.00
Neigh   | 0          | 0          | 0          |   0.0 |  0.00
Comm    | 0          | 0          | 0          |   0.0 |  0.00
Output  | 0          | 0          | 0          |   0.0 |  0.00
Modify  | 0          | 0          | 0          |   0.0 |  0.00
Other   |            | 8.33e-07   |            |       |100.00

Nlocal:             80 ave          80 max          80 min
Histogram: 1 0 0 0 0 0 0 0 0 0
Nghost:            626 ave         626 max         626 min
Histogram: 1 0 0 0 0 0 0 0 0 0
Neighs:           5040 ave        5040 max        5040 min
Histogram: 1 0 0 0 0 0 0 0 0 0

Total # of neighbors = 5040
Ave neighs/atom = 63
Neighbor list builds = 0
Dangerous builds = 0
set atom * x 0.0 y 0.0 z 0.0
Setting atom values ...
  80 settings made for x
  80 settings made for y
  80 settings made for z
change_box all     x final 0 8.079197620708007 y final 0 9.89495585092127 z final 0 30.506879986868682      xy final -8.079197620708005 xz final 0.0 yz final 0.0 units box
Changing box ...
  triclinic box = (0 0 0) to (8.0791976 9.8950325 30.507116) with tilt (-8.0792602 0 0)
  triclinic box = (0 0 0) to (8.0791976 9.8949559 30.507116) with tilt (-8.0792602 0 0)
  triclinic box = (0 0 0) to (8.0791976 9.8949559 30.50688) with tilt (-8.0792602 0 0)
  triclinic box = (0 0 0) to (8.0791976 9.8949559 30.50688) with tilt (-8.0791976 0 0)
  triclinic box = (0 0 0) to (8.0791976 9.8949559 30.50688) with tilt (-8.0791976 0 0)
  triclinic box = (0 0 0) to (8.0791976 9.8949559 30.50688) with tilt (-8.0791976 0 0)
echo none
run 0
Per MPI rank memory allocation (min/avg/max) = 3.267 | 3.267 | 3.267 Mbytes
    PotEng          Pxx           E_mol          E_coul    
-315.45674     -2882.0938      0              0            
Loop time of 8.75e-07 on 1 procs for 0 steps with 80 atoms

114.3% CPU use with 1 MPI tasks x no OpenMP threads

MPI task timing breakdown:
Section |  min time  |  avg time  |  max time  |%varavg| %total
---------------------------------------------------------------
Pair    | 0          | 0          | 0          |   0.0 |  0.00
Neigh   | 0          | 0          | 0          |   0.0 |  0.00
Comm    | 0          | 0          | 0          |   0.0 |  0.00
Output  | 0          | 0          | 0          |   0.0 |  0.00
Modify  | 0          | 0          | 0          |   0.0 |  0.00
Other   |            | 8.75e-07   |            |       |100.00

Nlocal:             80 ave          80 max          80 min
Histogram: 1 0 0 0 0 0 0 0 0 0
Nghost:            626 ave         626 max         626 min
Histogram: 1 0 0 0 0 0 0 0 0 0
Neighs:           5040 ave        5040 max        5040 min
Histogram: 1 0 0 0 0 0 0 0 0 0

Total # of neighbors = 5040
Ave neighs/atom = 63
Neighbor list builds = 0
Dangerous builds = 0
set atom * x 0.0 y 0.0 z 0.0
Setting atom values ...
  80 settings made for x
  80 settings made for y
  80 settings made for z
change_box all     x final 0 8.079197620708007 y final 0 9.89495585092127 z final 0 30.506879986868682      xy final -8.079197620708005 xz final 0.0 yz final 0.0 units box
Changing box ...
  triclinic box = (0 0 0) to (8.0791976 9.8949559 30.50688) with tilt (-8.0791976 0 0)
  triclinic box = (0 0 0) to (8.0791976 9.8949559 30.50688) with tilt (-8.0791976 0 0)
  triclinic box = (0 0 0) to (8.0791976 9.8949559 30.50688) with tilt (-8.0791976 0 0)
  triclinic box = (0 0 0) to (8.0791976 9.8949559 30.50688) with tilt (-8.0791976 0 0)
  triclinic box = (0 0 0) to (8.0791976 9.8949559 30.50688) with tilt (-8.0791976 0 0)
  triclinic box = (0 0 0) to (8.0791976 9.8949559 30.50688) with tilt (-8.0791976 0 0)
echo none
run 0
Per MPI rank memory allocation (min/avg/max) = 3.267 | 3.267 | 3.267 Mbytes
    PotEng          Pxx           E_mol          E_coul    
-315.45674     -2882.0938      0              0            
Loop time of 8.75e-07 on 1 procs for 0 steps with 80 atoms

114.3% CPU use with 1 MPI tasks x no OpenMP threads

MPI task timing breakdown:
Section |  min time  |  avg time  |  max time  |%varavg| %total
---------------------------------------------------------------
Pair    | 0          | 0          | 0          |   0.0 |  0.00
Neigh   | 0          | 0          | 0          |   0.0 |  0.00
Comm    | 0          | 0          | 0          |   0.0 |  0.00
Output  | 0          | 0          | 0          |   0.0 |  0.00
Modify  | 0          | 0          | 0          |   0.0 |  0.00
Other   |            | 8.75e-07   |            |       |100.00

Nlocal:             80 ave          80 max          80 min
Histogram: 1 0 0 0 0 0 0 0 0 0
Nghost:            626 ave         626 max         626 min
Histogram: 1 0 0 0 0 0 0 0 0 0
Neighs:           5040 ave        5040 max        5040 min
Histogram: 1 0 0 0 0 0 0 0 0 0

Total # of neighbors = 5040
Ave neighs/atom = 63
Neighbor list builds = 0
Dangerous builds = 0
set atom * x 0.0 y 0.0 z 0.0
Setting atom values ...
  80 settings made for x
  80 settings made for y
  80 settings made for z
change_box all     x final 0 8.078981976537014 y final 0 9.894691741828801 z final 0 30.506065719022644      xy final -8.078981976537012 xz final 0.0 yz final 0.0 units box
Changing box ...
  triclinic box = (0 0 0) to (8.078982 9.8949559 30.50688) with tilt (-8.0791976 0 0)
  triclinic box = (0 0 0) to (8.078982 9.8946917 30.50688) with tilt (-8.0791976 0 0)
  triclinic box = (0 0 0) to (8.078982 9.8946917 30.506066) with tilt (-8.0791976 0 0)
  triclinic box = (0 0 0) to (8.078982 9.8946917 30.506066) with tilt (-8.078982 0 0)
  triclinic box = (0 0 0) to (8.078982 9.8946917 30.506066) with tilt (-8.078982 0 0)
  triclinic box = (0 0 0) to (8.078982 9.8946917 30.506066) with tilt (-8.078982 0 0)
echo none
run 0
Per MPI rank memory allocation (min/avg/max) = 3.267 | 3.267 | 3.267 Mbytes
    PotEng          Pxx           E_mol          E_coul    
-315.45683     -2860.1758      0              0            
Loop time of 7.92e-07 on 1 procs for 0 steps with 80 atoms

0.0% CPU use with 1 MPI tasks x no OpenMP threads

MPI task timing breakdown:
Section |  min time  |  avg time  |  max time  |%varavg| %total
---------------------------------------------------------------
Pair    | 0          | 0          | 0          |   0.0 |  0.00
Neigh   | 0          | 0          | 0          |   0.0 |  0.00
Comm    | 0          | 0          | 0          |   0.0 |  0.00
Output  | 0          | 0          | 0          |   0.0 |  0.00
Modify  | 0          | 0          | 0          |   0.0 |  0.00
Other   |            | 7.92e-07   |            |       |100.00

Nlocal:             80 ave          80 max          80 min
Histogram: 1 0 0 0 0 0 0 0 0 0
Nghost:            626 ave         626 max         626 min
Histogram: 1 0 0 0 0 0 0 0 0 0
Neighs:           5040 ave        5040 max        5040 min
Histogram: 1 0 0 0 0 0 0 0 0 0

Total # of neighbors = 5040
Ave neighs/atom = 63
Neighbor list builds = 0
Dangerous builds = 0
set atom * x 0.0 y 0.0 z 0.0
Setting atom values ...
  80 settings made for x
  80 settings made for y
  80 settings made for z
change_box all     x final 0 8.078981976537014 y final 0 9.894691741828801 z final 0 30.506065719022644      xy final -8.078981976537012 xz final 0.0 yz final 0.0 units box
Changing box ...
  triclinic box = (0 0 0) to (8.078982 9.8946917 30.506066) with tilt (-8.078982 0 0)
  triclinic box = (0 0 0) to (8.078982 9.8946917 30.506066) with tilt (-8.078982 0 0)
  triclinic box = (0 0 0) to (8.078982 9.8946917 30.506066) with tilt (-8.078982 0 0)
  triclinic box = (0 0 0) to (8.078982 9.8946917 30.506066) with tilt (-8.078982 0 0)
  triclinic box = (0 0 0) to (8.078982 9.8946917 30.506066) with tilt (-8.078982 0 0)
  triclinic box = (0 0 0) to (8.078982 9.8946917 30.506066) with tilt (-8.078982 0 0)
echo none
run 0
Per MPI rank memory allocation (min/avg/max) = 3.267 | 3.267 | 3.267 Mbytes
    PotEng          Pxx           E_mol          E_coul    
-315.45683     -2860.1758      0              0            
Loop time of 1.209e-06 on 1 procs for 0 steps with 80 atoms

165.4% CPU use with 1 MPI tasks x no OpenMP threads

MPI task timing breakdown:
Section |  min time  |  avg time  |  max time  |%varavg| %total
---------------------------------------------------------------
Pair    | 0          | 0          | 0          |   0.0 |  0.00
Neigh   | 0          | 0          | 0          |   0.0 |  0.00
Comm    | 0          | 0          | 0          |   0.0 |  0.00
Output  | 0          | 0          | 0          |   0.0 |  0.00
Modify  | 0          | 0          | 0          |   0.0 |  0.00
Other   |            | 1.209e-06  |            |       |100.00

Nlocal:             80 ave          80 max          80 min
Histogram: 1 0 0 0 0 0 0 0 0 0
Nghost:            626 ave         626 max         626 min
Histogram: 1 0 0 0 0 0 0 0 0 0
Neighs:           5040 ave        5040 max        5040 min
Histogram: 1 0 0 0 0 0 0 0 0 0

Total # of neighbors = 5040
Ave neighs/atom = 63
Neighbor list builds = 0
Dangerous builds = 0
set atom * x 0.0 y 0.0 z 0.0
Setting atom values ...
  80 settings made for x
  80 settings made for y
  80 settings made for z
change_box all     x final 0 8.078668288649107 y final 0 9.89430755419687 z final 0 30.504881240167318      xy final -8.078668288649105 xz final 0.0 yz final 0.0 units box
Changing box ...
  triclinic box = (0 0 0) to (8.0786683 9.8946917 30.506066) with tilt (-8.078982 0 0)
  triclinic box = (0 0 0) to (8.0786683 9.8943076 30.506066) with tilt (-8.078982 0 0)
  triclinic box = (0 0 0) to (8.0786683 9.8943076 30.504881) with tilt (-8.078982 0 0)
  triclinic box = (0 0 0) to (8.0786683 9.8943076 30.504881) with tilt (-8.0786683 0 0)
  triclinic box = (0 0 0) to (8.0786683 9.8943076 30.504881) with tilt (-8.0786683 0 0)
  triclinic box = (0 0 0) to (8.0786683 9.8943076 30.504881) with tilt (-8.0786683 0 0)
echo none
run 0
Per MPI rank memory allocation (min/avg/max) = 3.267 | 3.267 | 3.267 Mbytes
    PotEng          Pxx           E_mol          E_coul    
-315.4569      -2839.9855      0              0            
Loop time of 8.75e-07 on 1 procs for 0 steps with 80 atoms

228.6% CPU use with 1 MPI tasks x no OpenMP threads

MPI task timing breakdown:
Section |  min time  |  avg time  |  max time  |%varavg| %total
---------------------------------------------------------------
Pair    | 0          | 0          | 0          |   0.0 |  0.00
Neigh   | 0          | 0          | 0          |   0.0 |  0.00
Comm    | 0          | 0          | 0          |   0.0 |  0.00
Output  | 0          | 0          | 0          |   0.0 |  0.00
Modify  | 0          | 0          | 0          |   0.0 |  0.00
Other   |            | 8.75e-07   |            |       |100.00

Nlocal:             80 ave          80 max          80 min
Histogram: 1 0 0 0 0 0 0 0 0 0
Nghost:            626 ave         626 max         626 min
Histogram: 1 0 0 0 0 0 0 0 0 0
Neighs:           5040 ave        5040 max        5040 min
Histogram: 1 0 0 0 0 0 0 0 0 0

Total # of neighbors = 5040
Ave neighs/atom = 63
Neighbor list builds = 0
Dangerous builds = 0
set atom * x 0.0 y 0.0 z 0.0
Setting atom values ...
  80 settings made for x
  80 settings made for y
  80 settings made for z
change_box all     x final 0 8.078108268582383 y final 0 9.893621672492273 z final 0 30.502766616195007      xy final -8.078108268582382 xz final 0.0 yz final 0.0 units box
Changing box ...
  triclinic box = (0 0 0) to (8.0781083 9.8943076 30.504881) with tilt (-8.0786683 0 0)
  triclinic box = (0 0 0) to (8.0781083 9.8936217 30.504881) with tilt (-8.0786683 0 0)
  triclinic box = (0 0 0) to (8.0781083 9.8936217 30.502767) with tilt (-8.0786683 0 0)
  triclinic box = (0 0 0) to (8.0781083 9.8936217 30.502767) with tilt (-8.0781083 0 0)
  triclinic box = (0 0 0) to (8.0781083 9.8936217 30.502767) with tilt (-8.0781083 0 0)
  triclinic box = (0 0 0) to (8.0781083 9.8936217 30.502767) with tilt (-8.0781083 0 0)
echo none
run 0
Per MPI rank memory allocation (min/avg/max) = 3.267 | 3.267 | 3.267 Mbytes
    PotEng          Pxx           E_mol          E_coul    
-315.45694     -2804.0222      0              0            
Loop time of 1e-06 on 1 procs for 0 steps with 80 atoms

100.0% CPU use with 1 MPI tasks x no OpenMP threads

MPI task timing breakdown:
Section |  min time  |  avg time  |  max time  |%varavg| %total
---------------------------------------------------------------
Pair    | 0          | 0          | 0          |   0.0 |  0.00
Neigh   | 0          | 0          | 0          |   0.0 |  0.00
Comm    | 0          | 0          | 0          |   0.0 |  0.00
Output  | 0          | 0          | 0          |   0.0 |  0.00
Modify  | 0          | 0          | 0          |   0.0 |  0.00
Other   |            | 1e-06      |            |       |100.00

Nlocal:             80 ave          80 max          80 min
Histogram: 1 0 0 0 0 0 0 0 0 0
Nghost:            626 ave         626 max         626 min
Histogram: 1 0 0 0 0 0 0 0 0 0
Neighs:           5040 ave        5040 max        5040 min
Histogram: 1 0 0 0 0 0 0 0 0 0

Total # of neighbors = 5040
Ave neighs/atom = 63
Neighbor list builds = 0
Dangerous builds = 0
set atom * x 0.0 y 0.0 z 0.0
Setting atom values ...
  80 settings made for x
  80 settings made for y
  80 settings made for z
change_box all     x final 0 8.078108268582383 y final 0 9.893621672492273 z final 0 30.502766616195007      xy final -8.078108268582382 xz final 0.0 yz final 0.0 units box
Changing box ...
  triclinic box = (0 0 0) to (8.0781083 9.8936217 30.502767) with tilt (-8.0781083 0 0)
  triclinic box = (0 0 0) to (8.0781083 9.8936217 30.502767) with tilt (-8.0781083 0 0)
  triclinic box = (0 0 0) to (8.0781083 9.8936217 30.502767) with tilt (-8.0781083 0 0)
  triclinic box = (0 0 0) to (8.0781083 9.8936217 30.502767) with tilt (-8.0781083 0 0)
  triclinic box = (0 0 0) to (8.0781083 9.8936217 30.502767) with tilt (-8.0781083 0 0)
  triclinic box = (0 0 0) to (8.0781083 9.8936217 30.502767) with tilt (-8.0781083 0 0)
echo none
run 0
Per MPI rank memory allocation (min/avg/max) = 3.267 | 3.267 | 3.267 Mbytes
    PotEng          Pxx           E_mol          E_coul    
-315.45694     -2804.0222      0              0            
Loop time of 1e-06 on 1 procs for 0 steps with 80 atoms

200.0% CPU use with 1 MPI tasks x no OpenMP threads

MPI task timing breakdown:
Section |  min time  |  avg time  |  max time  |%varavg| %total
---------------------------------------------------------------
Pair    | 0          | 0          | 0          |   0.0 |  0.00
Neigh   | 0          | 0          | 0          |   0.0 |  0.00
Comm    | 0          | 0          | 0          |   0.0 |  0.00
Output  | 0          | 0          | 0          |   0.0 |  0.00
Modify  | 0          | 0          | 0          |   0.0 |  0.00
Other   |            | 1e-06      |            |       |100.00

Nlocal:             80 ave          80 max          80 min
Histogram: 1 0 0 0 0 0 0 0 0 0
Nghost:            626 ave         626 max         626 min
Histogram: 1 0 0 0 0 0 0 0 0 0
Neighs:           5040 ave        5040 max        5040 min
Histogram: 1 0 0 0 0 0 0 0 0 0

Total # of neighbors = 5040
Ave neighs/atom = 63
Neighbor list builds = 0
Dangerous builds = 0
set atom * x 0.0 y 0.0 z 0.0
Setting atom values ...
  80 settings made for x
  80 settings made for y
  80 settings made for z
change_box all     x final 0 8.077777120579539 y final 0 9.893216100674119 z final 0 30.501516208313568      xy final -8.077777120579537 xz final 0.0 yz final 0.0 units box
Changing box ...
  triclinic box = (0 0 0) to (8.0777771 9.8936217 30.502767) with tilt (-8.0781083 0 0)
  triclinic box = (0 0 0) to (8.0777771 9.8932161 30.502767) with tilt (-8.0781083 0 0)
  triclinic box = (0 0 0) to (8.0777771 9.8932161 30.501516) with tilt (-8.0781083 0 0)
  triclinic box = (0 0 0) to (8.0777771 9.8932161 30.501516) with tilt (-8.0777771 0 0)
  triclinic box = (0 0 0) to (8.0777771 9.8932161 30.501516) with tilt (-8.0777771 0 0)
  triclinic box = (0 0 0) to (8.0777771 9.8932161 30.501516) with tilt (-8.0777771 0 0)
echo none
run 0
Per MPI rank memory allocation (min/avg/max) = 3.267 | 3.267 | 3.267 Mbytes
    PotEng          Pxx           E_mol          E_coul    
-315.45702     -2786.7994      0              0            
Loop time of 9.16e-07 on 1 procs for 0 steps with 80 atoms

109.2% CPU use with 1 MPI tasks x no OpenMP threads

MPI task timing breakdown:
Section |  min time  |  avg time  |  max time  |%varavg| %total
---------------------------------------------------------------
Pair    | 0          | 0          | 0          |   0.0 |  0.00
Neigh   | 0          | 0          | 0          |   0.0 |  0.00
Comm    | 0          | 0          | 0          |   0.0 |  0.00
Output  | 0          | 0          | 0          |   0.0 |  0.00
Modify  | 0          | 0          | 0          |   0.0 |  0.00
Other   |            | 9.16e-07   |            |       |100.00

Nlocal:             80 ave          80 max          80 min
Histogram: 1 0 0 0 0 0 0 0 0 0
Nghost:            626 ave         626 max         626 min
Histogram: 1 0 0 0 0 0 0 0 0 0
Neighs:           5040 ave        5040 max        5040 min
Histogram: 1 0 0 0 0 0 0 0 0 0

Total # of neighbors = 5040
Ave neighs/atom = 63
Neighbor list builds = 0
Dangerous builds = 0
set atom * x 0.0 y 0.0 z 0.0
Setting atom values ...
  80 settings made for x
  80 settings made for y
  80 settings made for z
change_box all     x final 0 8.07716842113279 y final 0 9.892470599148494 z final 0 30.499217772027958      xy final -8.077168421132788 xz final 0.0 yz final 0.0 units box
Changing box ...
  triclinic box = (0 0 0) to (8.0771684 9.8932161 30.501516) with tilt (-8.0777771 0 0)
  triclinic box = (0 0 0) to (8.0771684 9.8924706 30.501516) with tilt (-8.0777771 0 0)
  triclinic box = (0 0 0) to (8.0771684 9.8924706 30.499218) with tilt (-8.0777771 0 0)
  triclinic box = (0 0 0) to (8.0771684 9.8924706 30.499218) with tilt (-8.0771684 0 0)
  triclinic box = (0 0 0) to (8.0771684 9.8924706 30.499218) with tilt (-8.0771684 0 0)
  triclinic box = (0 0 0) to (8.0771684 9.8924706 30.499218) with tilt (-8.0771684 0 0)
echo none
run 0
Per MPI rank memory allocation (min/avg/max) = 3.267 | 3.267 | 3.267 Mbytes
    PotEng          Pxx           E_mol          E_coul    
-315.45707     -2755.168       0              0            
Loop time of 6.67e-07 on 1 procs for 0 steps with 80 atoms

0.0% CPU use with 1 MPI tasks x no OpenMP threads

MPI task timing breakdown:
Section |  min time  |  avg time  |  max time  |%varavg| %total
---------------------------------------------------------------
Pair    | 0          | 0          | 0          |   0.0 |  0.00
Neigh   | 0          | 0          | 0          |   0.0 |  0.00
Comm    | 0          | 0          | 0          |   0.0 |  0.00
Output  | 0          | 0          | 0          |   0.0 |  0.00
Modify  | 0          | 0          | 0          |   0.0 |  0.00
Other   |            | 6.67e-07   |            |       |100.00

Nlocal:             80 ave          80 max          80 min
Histogram: 1 0 0 0 0 0 0 0 0 0
Nghost:            626 ave         626 max         626 min
Histogram: 1 0 0 0 0 0 0 0 0 0
Neighs:           5040 ave        5040 max        5040 min
Histogram: 1 0 0 0 0 0 0 0 0 0

Total # of neighbors = 5040
Ave neighs/atom = 63
Neighbor list builds = 0
Dangerous builds = 0
Total wall time: 0:00:03
