LAMMPS (23 Jun 2022 - Update 4)
units metal
atom_style atomic
atom_modify map array sort 0 0
boundary p p p
box tilt large
region cell prism    0 3.195 0 2.7669511650912813 0 5.186     -1.5975 0.0 0.0     units box
create_box 1 cell
Created triclinic box = (0 0 0) to (3.195 2.7669512 5.186) with tilt (-1.5975 0 0)
  1 by 1 by 1 MPI processor grid
echo none
Created 2 atoms
  using lattice units in triclinic box = (0 0 0) to (3.195 2.7669512 5.186) with tilt (-1.5975 0 0)
  create_atoms CPU = 0.000 seconds
Setting atom values ...
  1 settings made for type
Setting atom values ...
  1 settings made for type
pair_style eam/alloy
pair_coeff * * potentials/Mg.eam.alloy Mg
Reading eam/alloy potential file potentials/Mg.eam.alloy with DATE: 2018-03-30
mass 1 24.304999993747674835731231723912
variable pxx equal pxx
variable pyy equal pyy
variable pzz equal pzz
variable pxy equal pxy
variable pxz equal pxz
variable pyz equal pyz
thermo_style custom pe pxx emol ecoul
variable fx atom fx
variable fy atom fy
variable fz atom fz
variable pe equal pe
neigh_modify delay 0 every 1 check yes
echo none
run 0
WARNING: No fixes with time integration, atoms won't move (src/src/verlet.cpp:60)
Neighbor list info ...
  update every 1 steps, delay 0 steps, check yes
  max neighbors/atom: 2000, page size: 100000
  master list distance cutoff = 9.147124
  ghost atom cutoff = 9.147124
  binsize = 4.573562, bins = 2 1 2
  1 neighbor lists, perpetual/occasional/extra = 1 0 0
  (1) pair eam/alloy, perpetual
      attributes: half, newton on
      pair build: half/bin/newton/tri
      stencil: half/bin/3d/tri
      bin: standard
Per MPI rank memory allocation (min/avg/max) = 3.249 | 3.249 | 3.249 Mbytes
    PotEng          Pxx           E_mol          E_coul    
-3.0996994      2088.1338      0              0            
Loop time of 7.92e-07 on 1 procs for 0 steps with 2 atoms

252.5% CPU use with 1 MPI tasks x no OpenMP threads

MPI task timing breakdown:
Section |  min time  |  avg time  |  max time  |%varavg| %total
---------------------------------------------------------------
Pair    | 0          | 0          | 0          |   0.0 |  0.00
Neigh   | 0          | 0          | 0          |   0.0 |  0.00
Comm    | 0          | 0          | 0          |   0.0 |  0.00
Output  | 0          | 0          | 0          |   0.0 |  0.00
Modify  | 0          | 0          | 0          |   0.0 |  0.00
Other   |            | 7.92e-07   |            |       |100.00

Nlocal:              2 ave           2 max           2 min
Histogram: 1 0 0 0 0 0 0 0 0 0
Nghost:            499 ave         499 max         499 min
Histogram: 1 0 0 0 0 0 0 0 0 0
Neighs:            134 ave         134 max         134 min
Histogram: 1 0 0 0 0 0 0 0 0 0

Total # of neighbors = 134
Ave neighs/atom = 67
Neighbor list builds = 0
Dangerous builds = 0
set atom * x 0.0 y 0.0 z 0.0
Setting atom values ...
  2 settings made for x
  2 settings made for y
  2 settings made for z
change_box all     x final 0 3.219642279529805 y final 0 2.78829200517125 z final 0 5.2259983917501005      xy final -1.6098211397649025 xz final 0.0 yz final 0.0 units box
Changing box ...
  triclinic box = (0 0 0) to (3.2196423 2.7669512 5.186) with tilt (-1.5975 0 0)
  triclinic box = (0 0 0) to (3.2196423 2.788292 5.186) with tilt (-1.5975 0 0)
  triclinic box = (0 0 0) to (3.2196423 2.788292 5.2259984) with tilt (-1.5975 0 0)
  triclinic box = (0 0 0) to (3.2196423 2.788292 5.2259984) with tilt (-1.6098211 0 0)
  triclinic box = (0 0 0) to (3.2196423 2.788292 5.2259984) with tilt (-1.6098211 0 0)
  triclinic box = (0 0 0) to (3.2196423 2.788292 5.2259984) with tilt (-1.6098211 0 0)
echo none
run 0
WARNING: No fixes with time integration, atoms won't move (src/src/verlet.cpp:60)
Per MPI rank memory allocation (min/avg/max) = 3.249 | 3.249 | 3.249 Mbytes
    PotEng          Pxx           E_mol          E_coul    
-3.0987249     -5719.4725      0              0            
Loop time of 1.042e-06 on 1 procs for 0 steps with 2 atoms

96.0% CPU use with 1 MPI tasks x no OpenMP threads

MPI task timing breakdown:
Section |  min time  |  avg time  |  max time  |%varavg| %total
---------------------------------------------------------------
Pair    | 0          | 0          | 0          |   0.0 |  0.00
Neigh   | 0          | 0          | 0          |   0.0 |  0.00
Comm    | 0          | 0          | 0          |   0.0 |  0.00
Output  | 0          | 0          | 0          |   0.0 |  0.00
Modify  | 0          | 0          | 0          |   0.0 |  0.00
Other   |            | 1.042e-06  |            |       |100.00

Nlocal:              2 ave           2 max           2 min
Histogram: 1 0 0 0 0 0 0 0 0 0
Nghost:            499 ave         499 max         499 min
Histogram: 1 0 0 0 0 0 0 0 0 0
Neighs:            134 ave         134 max         134 min
Histogram: 1 0 0 0 0 0 0 0 0 0

Total # of neighbors = 134
Ave neighs/atom = 67
Neighbor list builds = 0
Dangerous builds = 0
set atom * x 0.0 y 0.0 z 0.0
Setting atom values ...
  2 settings made for x
  2 settings made for y
  2 settings made for z
change_box all     x final 0 3.202728473465918 y final 0 2.77364421944524 z final 0 5.198544558182864      xy final -1.601364236732959 xz final 0.0 yz final 0.0 units box
Changing box ...
WARNING: Triclinic box skew is large (src/src/domain.cpp:224)
  triclinic box = (0 0 0) to (3.2027285 2.788292 5.2259984) with tilt (-1.6098211 0 0)
WARNING: Triclinic box skew is large (src/src/domain.cpp:224)
  triclinic box = (0 0 0) to (3.2027285 2.7736442 5.2259984) with tilt (-1.6098211 0 0)
WARNING: Triclinic box skew is large (src/src/domain.cpp:224)
  triclinic box = (0 0 0) to (3.2027285 2.7736442 5.1985446) with tilt (-1.6098211 0 0)
  triclinic box = (0 0 0) to (3.2027285 2.7736442 5.1985446) with tilt (-1.6013642 0 0)
  triclinic box = (0 0 0) to (3.2027285 2.7736442 5.1985446) with tilt (-1.6013642 0 0)
  triclinic box = (0 0 0) to (3.2027285 2.7736442 5.1985446) with tilt (-1.6013642 0 0)
echo none
run 0
WARNING: No fixes with time integration, atoms won't move (src/src/verlet.cpp:60)
Per MPI rank memory allocation (min/avg/max) = 3.249 | 3.249 | 3.249 Mbytes
    PotEng          Pxx           E_mol          E_coul    
-3.0999416     -435.03273      0              0            
Loop time of 1.083e-06 on 1 procs for 0 steps with 2 atoms

92.3% CPU use with 1 MPI tasks x no OpenMP threads

MPI task timing breakdown:
Section |  min time  |  avg time  |  max time  |%varavg| %total
---------------------------------------------------------------
Pair    | 0          | 0          | 0          |   0.0 |  0.00
Neigh   | 0          | 0          | 0          |   0.0 |  0.00
Comm    | 0          | 0          | 0          |   0.0 |  0.00
Output  | 0          | 0          | 0          |   0.0 |  0.00
Modify  | 0          | 0          | 0          |   0.0 |  0.00
Other   |            | 1.083e-06  |            |       |100.00

Nlocal:              2 ave           2 max           2 min
Histogram: 1 0 0 0 0 0 0 0 0 0
Nghost:            499 ave         499 max         499 min
Histogram: 1 0 0 0 0 0 0 0 0 0
Neighs:            134 ave         134 max         134 min
Histogram: 1 0 0 0 0 0 0 0 0 0

Total # of neighbors = 134
Ave neighs/atom = 67
Neighbor list builds = 0
Dangerous builds = 0
set atom * x 0.0 y 0.0 z 0.0
Setting atom values ...
  2 settings made for x
  2 settings made for y
  2 settings made for z
change_box all     x final 0 2.8824556261193264 y final 0 2.496279797500716 z final 0 4.678690102364578      xy final -1.4412278130596632 xz final 0.0 yz final 0.0 units box
Changing box ...
WARNING: Triclinic box skew is large (src/src/domain.cpp:224)
  triclinic box = (0 0 0) to (2.8824556 2.7736442 5.1985446) with tilt (-1.6013642 0 0)
WARNING: Triclinic box skew is large (src/src/domain.cpp:224)
  triclinic box = (0 0 0) to (2.8824556 2.4962798 5.1985446) with tilt (-1.6013642 0 0)
WARNING: Triclinic box skew is large (src/src/domain.cpp:224)
  triclinic box = (0 0 0) to (2.8824556 2.4962798 4.6786901) with tilt (-1.6013642 0 0)
  triclinic box = (0 0 0) to (2.8824556 2.4962798 4.6786901) with tilt (-1.4412278 0 0)
  triclinic box = (0 0 0) to (2.8824556 2.4962798 4.6786901) with tilt (-1.4412278 0 0)
  triclinic box = (0 0 0) to (2.8824556 2.4962798 4.6786901) with tilt (-1.4412278 0 0)
echo none
run 0
WARNING: No fixes with time integration, atoms won't move (src/src/verlet.cpp:60)
Per MPI rank memory allocation (min/avg/max) = 3.252 | 3.252 | 3.252 Mbytes
    PotEng          Pxx           E_mol          E_coul    
-2.3753066      257650.07      0              0            
Loop time of 1e-06 on 1 procs for 0 steps with 2 atoms

100.0% CPU use with 1 MPI tasks x no OpenMP threads

MPI task timing breakdown:
Section |  min time  |  avg time  |  max time  |%varavg| %total
---------------------------------------------------------------
Pair    | 0          | 0          | 0          |   0.0 |  0.00
Neigh   | 0          | 0          | 0          |   0.0 |  0.00
Comm    | 0          | 0          | 0          |   0.0 |  0.00
Output  | 0          | 0          | 0          |   0.0 |  0.00
Modify  | 0          | 0          | 0          |   0.0 |  0.00
Other   |            | 1e-06      |            |       |100.00

Nlocal:              2 ave           2 max           2 min
Histogram: 1 0 0 0 0 0 0 0 0 0
Nghost:            574 ave         574 max         574 min
Histogram: 1 0 0 0 0 0 0 0 0 0
Neighs:            194 ave         194 max         194 min
Histogram: 1 0 0 0 0 0 0 0 0 0

Total # of neighbors = 194
Ave neighs/atom = 97
Neighbor list builds = 0
Dangerous builds = 0
set atom * x 0.0 y 0.0 z 0.0
Setting atom values ...
  2 settings made for x
  2 settings made for y
  2 settings made for z
change_box all     x final 0 2.9144829108539856 y final 0 2.5240162396951686 z final 0 4.730675547946407      xy final -1.4572414554269928 xz final 0.0 yz final 0.0 units box
Changing box ...
  triclinic box = (0 0 0) to (2.9144829 2.4962798 4.6786901) with tilt (-1.4412278 0 0)
  triclinic box = (0 0 0) to (2.9144829 2.5240162 4.6786901) with tilt (-1.4412278 0 0)
  triclinic box = (0 0 0) to (2.9144829 2.5240162 4.7306755) with tilt (-1.4412278 0 0)
  triclinic box = (0 0 0) to (2.9144829 2.5240162 4.7306755) with tilt (-1.4572415 0 0)
  triclinic box = (0 0 0) to (2.9144829 2.5240162 4.7306755) with tilt (-1.4572415 0 0)
  triclinic box = (0 0 0) to (2.9144829 2.5240162 4.7306755) with tilt (-1.4572415 0 0)
echo none
run 0
WARNING: No fixes with time integration, atoms won't move (src/src/verlet.cpp:60)
Per MPI rank memory allocation (min/avg/max) = 3.252 | 3.252 | 3.252 Mbytes
    PotEng          Pxx           E_mol          E_coul    
-2.5429953      210011.61      0              0            
Loop time of 1.083e-06 on 1 procs for 0 steps with 2 atoms

184.7% CPU use with 1 MPI tasks x no OpenMP threads

MPI task timing breakdown:
Section |  min time  |  avg time  |  max time  |%varavg| %total
---------------------------------------------------------------
Pair    | 0          | 0          | 0          |   0.0 |  0.00
Neigh   | 0          | 0          | 0          |   0.0 |  0.00
Comm    | 0          | 0          | 0          |   0.0 |  0.00
Output  | 0          | 0          | 0          |   0.0 |  0.00
Modify  | 0          | 0          | 0          |   0.0 |  0.00
Other   |            | 1.083e-06  |            |       |100.00

Nlocal:              2 ave           2 max           2 min
Histogram: 1 0 0 0 0 0 0 0 0 0
Nghost:            574 ave         574 max         574 min
Histogram: 1 0 0 0 0 0 0 0 0 0
Neighs:            182 ave         182 max         182 min
Histogram: 1 0 0 0 0 0 0 0 0 0

Total # of neighbors = 182
Ave neighs/atom = 91
Neighbor list builds = 0
Dangerous builds = 0
set atom * x 0.0 y 0.0 z 0.0
Setting atom values ...
  2 settings made for x
  2 settings made for y
  2 settings made for z
change_box all     x final 0 2.946510195588645 y final 0 2.5517526818896212 z final 0 4.782660993528236      xy final -1.4732550977943224 xz final 0.0 yz final 0.0 units box
Changing box ...
  triclinic box = (0 0 0) to (2.9465102 2.5240162 4.7306755) with tilt (-1.4572415 0 0)
  triclinic box = (0 0 0) to (2.9465102 2.5517527 4.7306755) with tilt (-1.4572415 0 0)
  triclinic box = (0 0 0) to (2.9465102 2.5517527 4.782661) with tilt (-1.4572415 0 0)
  triclinic box = (0 0 0) to (2.9465102 2.5517527 4.782661) with tilt (-1.4732551 0 0)
  triclinic box = (0 0 0) to (2.9465102 2.5517527 4.782661) with tilt (-1.4732551 0 0)
  triclinic box = (0 0 0) to (2.9465102 2.5517527 4.782661) with tilt (-1.4732551 0 0)
echo none
run 0
WARNING: No fixes with time integration, atoms won't move (src/src/verlet.cpp:60)
Per MPI rank memory allocation (min/avg/max) = 3.252 | 3.252 | 3.252 Mbytes
    PotEng          Pxx           E_mol          E_coul    
-2.6821013      169233.07      0              0            
Loop time of 1.042e-06 on 1 procs for 0 steps with 2 atoms

191.9% CPU use with 1 MPI tasks x no OpenMP threads

MPI task timing breakdown:
Section |  min time  |  avg time  |  max time  |%varavg| %total
---------------------------------------------------------------
Pair    | 0          | 0          | 0          |   0.0 |  0.00
Neigh   | 0          | 0          | 0          |   0.0 |  0.00
Comm    | 0          | 0          | 0          |   0.0 |  0.00
Output  | 0          | 0          | 0          |   0.0 |  0.00
Modify  | 0          | 0          | 0          |   0.0 |  0.00
Other   |            | 1.042e-06  |            |       |100.00

Nlocal:              2 ave           2 max           2 min
Histogram: 1 0 0 0 0 0 0 0 0 0
Nghost:            574 ave         574 max         574 min
Histogram: 1 0 0 0 0 0 0 0 0 0
Neighs:            182 ave         182 max         182 min
Histogram: 1 0 0 0 0 0 0 0 0 0

Total # of neighbors = 182
Ave neighs/atom = 91
Neighbor list builds = 0
Dangerous builds = 0
set atom * x 0.0 y 0.0 z 0.0
Setting atom values ...
  2 settings made for x
  2 settings made for y
  2 settings made for z
change_box all     x final 0 2.978537480323304 y final 0 2.5794891240840734 z final 0 4.834646439110064      xy final -1.489268740161652 xz final 0.0 yz final 0.0 units box
Changing box ...
  triclinic box = (0 0 0) to (2.9785375 2.5517527 4.782661) with tilt (-1.4732551 0 0)
  triclinic box = (0 0 0) to (2.9785375 2.5794891 4.782661) with tilt (-1.4732551 0 0)
  triclinic box = (0 0 0) to (2.9785375 2.5794891 4.8346464) with tilt (-1.4732551 0 0)
  triclinic box = (0 0 0) to (2.9785375 2.5794891 4.8346464) with tilt (-1.4892687 0 0)
  triclinic box = (0 0 0) to (2.9785375 2.5794891 4.8346464) with tilt (-1.4892687 0 0)
  triclinic box = (0 0 0) to (2.9785375 2.5794891 4.8346464) with tilt (-1.4892687 0 0)
echo none
run 0
WARNING: No fixes with time integration, atoms won't move (src/src/verlet.cpp:60)
Per MPI rank memory allocation (min/avg/max) = 3.252 | 3.252 | 3.252 Mbytes
    PotEng          Pxx           E_mol          E_coul    
-2.796002       134291.43      0              0            
Loop time of 1.083e-06 on 1 procs for 0 steps with 2 atoms

92.3% CPU use with 1 MPI tasks x no OpenMP threads

MPI task timing breakdown:
Section |  min time  |  avg time  |  max time  |%varavg| %total
---------------------------------------------------------------
Pair    | 0          | 0          | 0          |   0.0 |  0.00
Neigh   | 0          | 0          | 0          |   0.0 |  0.00
Comm    | 0          | 0          | 0          |   0.0 |  0.00
Output  | 0          | 0          | 0          |   0.0 |  0.00
Modify  | 0          | 0          | 0          |   0.0 |  0.00
Other   |            | 1.083e-06  |            |       |100.00

Nlocal:              2 ave           2 max           2 min
Histogram: 1 0 0 0 0 0 0 0 0 0
Nghost:            574 ave         574 max         574 min
Histogram: 1 0 0 0 0 0 0 0 0 0
Neighs:            158 ave         158 max         158 min
Histogram: 1 0 0 0 0 0 0 0 0 0

Total # of neighbors = 158
Ave neighs/atom = 79
Neighbor list builds = 0
Dangerous builds = 0
set atom * x 0.0 y 0.0 z 0.0
Setting atom values ...
  2 settings made for x
  2 settings made for y
  2 settings made for z
change_box all     x final 0 3.010564765057963 y final 0 2.607225566278526 z final 0 4.886631884691893      xy final -1.5052823825289816 xz final 0.0 yz final 0.0 units box
Changing box ...
  triclinic box = (0 0 0) to (3.0105648 2.5794891 4.8346464) with tilt (-1.4892687 0 0)
  triclinic box = (0 0 0) to (3.0105648 2.6072256 4.8346464) with tilt (-1.4892687 0 0)
  triclinic box = (0 0 0) to (3.0105648 2.6072256 4.8866319) with tilt (-1.4892687 0 0)
  triclinic box = (0 0 0) to (3.0105648 2.6072256 4.8866319) with tilt (-1.5052824 0 0)
  triclinic box = (0 0 0) to (3.0105648 2.6072256 4.8866319) with tilt (-1.5052824 0 0)
  triclinic box = (0 0 0) to (3.0105648 2.6072256 4.8866319) with tilt (-1.5052824 0 0)
echo none
run 0
WARNING: No fixes with time integration, atoms won't move (src/src/verlet.cpp:60)
Per MPI rank memory allocation (min/avg/max) = 3.252 | 3.252 | 3.252 Mbytes
    PotEng          Pxx           E_mol          E_coul    
-2.8876318      104394.32      0              0            
Loop time of 1e-06 on 1 procs for 0 steps with 2 atoms

100.0% CPU use with 1 MPI tasks x no OpenMP threads

MPI task timing breakdown:
Section |  min time  |  avg time  |  max time  |%varavg| %total
---------------------------------------------------------------
Pair    | 0          | 0          | 0          |   0.0 |  0.00
Neigh   | 0          | 0          | 0          |   0.0 |  0.00
Comm    | 0          | 0          | 0          |   0.0 |  0.00
Output  | 0          | 0          | 0          |   0.0 |  0.00
Modify  | 0          | 0          | 0          |   0.0 |  0.00
Other   |            | 1e-06      |            |       |100.00

Nlocal:              2 ave           2 max           2 min
Histogram: 1 0 0 0 0 0 0 0 0 0
Nghost:            574 ave         574 max         574 min
Histogram: 1 0 0 0 0 0 0 0 0 0
Neighs:            158 ave         158 max         158 min
Histogram: 1 0 0 0 0 0 0 0 0 0

Total # of neighbors = 158
Ave neighs/atom = 79
Neighbor list builds = 0
Dangerous builds = 0
set atom * x 0.0 y 0.0 z 0.0
Setting atom values ...
  2 settings made for x
  2 settings made for y
  2 settings made for z
change_box all     x final 0 3.0425920497926224 y final 0 2.6349620084729786 z final 0 4.938617330273722      xy final -1.5212960248963112 xz final 0.0 yz final 0.0 units box
Changing box ...
  triclinic box = (0 0 0) to (3.042592 2.6072256 4.8866319) with tilt (-1.5052824 0 0)
  triclinic box = (0 0 0) to (3.042592 2.634962 4.8866319) with tilt (-1.5052824 0 0)
  triclinic box = (0 0 0) to (3.042592 2.634962 4.9386173) with tilt (-1.5052824 0 0)
  triclinic box = (0 0 0) to (3.042592 2.634962 4.9386173) with tilt (-1.521296 0 0)
  triclinic box = (0 0 0) to (3.042592 2.634962 4.9386173) with tilt (-1.521296 0 0)
  triclinic box = (0 0 0) to (3.042592 2.634962 4.9386173) with tilt (-1.521296 0 0)
echo none
run 0
WARNING: No fixes with time integration, atoms won't move (src/src/verlet.cpp:60)
Per MPI rank memory allocation (min/avg/max) = 3.252 | 3.252 | 3.252 Mbytes
    PotEng          Pxx           E_mol          E_coul    
-2.9595956      78882.115      0              0            
Loop time of 1.167e-06 on 1 procs for 0 steps with 2 atoms

257.1% CPU use with 1 MPI tasks x no OpenMP threads

MPI task timing breakdown:
Section |  min time  |  avg time  |  max time  |%varavg| %total
---------------------------------------------------------------
Pair    | 0          | 0          | 0          |   0.0 |  0.00
Neigh   | 0          | 0          | 0          |   0.0 |  0.00
Comm    | 0          | 0          | 0          |   0.0 |  0.00
Output  | 0          | 0          | 0          |   0.0 |  0.00
Modify  | 0          | 0          | 0          |   0.0 |  0.00
Other   |            | 1.167e-06  |            |       |100.00

Nlocal:              2 ave           2 max           2 min
Histogram: 1 0 0 0 0 0 0 0 0 0
Nghost:            574 ave         574 max         574 min
Histogram: 1 0 0 0 0 0 0 0 0 0
Neighs:            158 ave         158 max         158 min
Histogram: 1 0 0 0 0 0 0 0 0 0

Total # of neighbors = 158
Ave neighs/atom = 79
Neighbor list builds = 0
Dangerous builds = 0
set atom * x 0.0 y 0.0 z 0.0
Setting atom values ...
  2 settings made for x
  2 settings made for y
  2 settings made for z
change_box all     x final 0 3.0746193345272816 y final 0 2.6626984506674307 z final 0 4.9906027758555505      xy final -1.5373096672636408 xz final 0.0 yz final 0.0 units box
Changing box ...
  triclinic box = (0 0 0) to (3.0746193 2.634962 4.9386173) with tilt (-1.521296 0 0)
  triclinic box = (0 0 0) to (3.0746193 2.6626985 4.9386173) with tilt (-1.521296 0 0)
  triclinic box = (0 0 0) to (3.0746193 2.6626985 4.9906028) with tilt (-1.521296 0 0)
  triclinic box = (0 0 0) to (3.0746193 2.6626985 4.9906028) with tilt (-1.5373097 0 0)
  triclinic box = (0 0 0) to (3.0746193 2.6626985 4.9906028) with tilt (-1.5373097 0 0)
  triclinic box = (0 0 0) to (3.0746193 2.6626985 4.9906028) with tilt (-1.5373097 0 0)
echo none
run 0
WARNING: No fixes with time integration, atoms won't move (src/src/verlet.cpp:60)
Per MPI rank memory allocation (min/avg/max) = 3.252 | 3.252 | 3.252 Mbytes
    PotEng          Pxx           E_mol          E_coul    
-3.0143099      57156.789      0              0            
Loop time of 1.083e-06 on 1 procs for 0 steps with 2 atoms

0.0% CPU use with 1 MPI tasks x no OpenMP threads

MPI task timing breakdown:
Section |  min time  |  avg time  |  max time  |%varavg| %total
---------------------------------------------------------------
Pair    | 0          | 0          | 0          |   0.0 |  0.00
Neigh   | 0          | 0          | 0          |   0.0 |  0.00
Comm    | 0          | 0          | 0          |   0.0 |  0.00
Output  | 0          | 0          | 0          |   0.0 |  0.00
Modify  | 0          | 0          | 0          |   0.0 |  0.00
Other   |            | 1.083e-06  |            |       |100.00

Nlocal:              2 ave           2 max           2 min
Histogram: 1 0 0 0 0 0 0 0 0 0
Nghost:            574 ave         574 max         574 min
Histogram: 1 0 0 0 0 0 0 0 0 0
Neighs:            146 ave         146 max         146 min
Histogram: 1 0 0 0 0 0 0 0 0 0

Total # of neighbors = 146
Ave neighs/atom = 73
Neighbor list builds = 0
Dangerous builds = 0
set atom * x 0.0 y 0.0 z 0.0
Setting atom values ...
  2 settings made for x
  2 settings made for y
  2 settings made for z
change_box all     x final 0 3.106646619261941 y final 0 2.6904348928618833 z final 0 5.042588221437379      xy final -1.5533233096309704 xz final 0.0 yz final 0.0 units box
Changing box ...
  triclinic box = (0 0 0) to (3.1066466 2.6626985 4.9906028) with tilt (-1.5373097 0 0)
  triclinic box = (0 0 0) to (3.1066466 2.6904349 4.9906028) with tilt (-1.5373097 0 0)
  triclinic box = (0 0 0) to (3.1066466 2.6904349 5.0425882) with tilt (-1.5373097 0 0)
  triclinic box = (0 0 0) to (3.1066466 2.6904349 5.0425882) with tilt (-1.5533233 0 0)
  triclinic box = (0 0 0) to (3.1066466 2.6904349 5.0425882) with tilt (-1.5533233 0 0)
  triclinic box = (0 0 0) to (3.1066466 2.6904349 5.0425882) with tilt (-1.5533233 0 0)
echo none
run 0
WARNING: No fixes with time integration, atoms won't move (src/src/verlet.cpp:60)
Per MPI rank memory allocation (min/avg/max) = 3.252 | 3.252 | 3.252 Mbytes
    PotEng          Pxx           E_mol          E_coul    
-3.0538437      38758.932      0              0            
Loop time of 9.59e-07 on 1 procs for 0 steps with 2 atoms

0.0% CPU use with 1 MPI tasks x no OpenMP threads

MPI task timing breakdown:
Section |  min time  |  avg time  |  max time  |%varavg| %total
---------------------------------------------------------------
Pair    | 0          | 0          | 0          |   0.0 |  0.00
Neigh   | 0          | 0          | 0          |   0.0 |  0.00
Comm    | 0          | 0          | 0          |   0.0 |  0.00
Output  | 0          | 0          | 0          |   0.0 |  0.00
Modify  | 0          | 0          | 0          |   0.0 |  0.00
Other   |            | 9.59e-07   |            |       |100.00

Nlocal:              2 ave           2 max           2 min
Histogram: 1 0 0 0 0 0 0 0 0 0
Nghost:            574 ave         574 max         574 min
Histogram: 1 0 0 0 0 0 0 0 0 0
Neighs:            146 ave         146 max         146 min
Histogram: 1 0 0 0 0 0 0 0 0 0

Total # of neighbors = 146
Ave neighs/atom = 73
Neighbor list builds = 0
Dangerous builds = 0
set atom * x 0.0 y 0.0 z 0.0
Setting atom values ...
  2 settings made for x
  2 settings made for y
  2 settings made for z
change_box all     x final 0 3.1386739039966 y final 0 2.7181713350563355 z final 0 5.094573667019207      xy final -1.5693369519983 xz final 0.0 yz final 0.0 units box
Changing box ...
  triclinic box = (0 0 0) to (3.1386739 2.6904349 5.0425882) with tilt (-1.5533233 0 0)
  triclinic box = (0 0 0) to (3.1386739 2.7181713 5.0425882) with tilt (-1.5533233 0 0)
  triclinic box = (0 0 0) to (3.1386739 2.7181713 5.0945737) with tilt (-1.5533233 0 0)
  triclinic box = (0 0 0) to (3.1386739 2.7181713 5.0945737) with tilt (-1.569337 0 0)
  triclinic box = (0 0 0) to (3.1386739 2.7181713 5.0945737) with tilt (-1.569337 0 0)
  triclinic box = (0 0 0) to (3.1386739 2.7181713 5.0945737) with tilt (-1.569337 0 0)
echo none
run 0
WARNING: No fixes with time integration, atoms won't move (src/src/verlet.cpp:60)
Per MPI rank memory allocation (min/avg/max) = 3.252 | 3.252 | 3.252 Mbytes
    PotEng          Pxx           E_mol          E_coul    
-3.0801472      23549.917      0              0            
Loop time of 1e-06 on 1 procs for 0 steps with 2 atoms

100.0% CPU use with 1 MPI tasks x no OpenMP threads

MPI task timing breakdown:
Section |  min time  |  avg time  |  max time  |%varavg| %total
---------------------------------------------------------------
Pair    | 0          | 0          | 0          |   0.0 |  0.00
Neigh   | 0          | 0          | 0          |   0.0 |  0.00
Comm    | 0          | 0          | 0          |   0.0 |  0.00
Output  | 0          | 0          | 0          |   0.0 |  0.00
Modify  | 0          | 0          | 0          |   0.0 |  0.00
Other   |            | 1e-06      |            |       |100.00

Nlocal:              2 ave           2 max           2 min
Histogram: 1 0 0 0 0 0 0 0 0 0
Nghost:            574 ave         574 max         574 min
Histogram: 1 0 0 0 0 0 0 0 0 0
Neighs:            146 ave         146 max         146 min
Histogram: 1 0 0 0 0 0 0 0 0 0

Total # of neighbors = 146
Ave neighs/atom = 73
Neighbor list builds = 0
Dangerous builds = 0
set atom * x 0.0 y 0.0 z 0.0
Setting atom values ...
  2 settings made for x
  2 settings made for y
  2 settings made for z
change_box all     x final 0 3.1707011887312593 y final 0 2.745907777250788 z final 0 5.146559112601036      xy final -1.5853505943656296 xz final 0.0 yz final 0.0 units box
Changing box ...
  triclinic box = (0 0 0) to (3.1707012 2.7181713 5.0945737) with tilt (-1.569337 0 0)
  triclinic box = (0 0 0) to (3.1707012 2.7459078 5.0945737) with tilt (-1.569337 0 0)
  triclinic box = (0 0 0) to (3.1707012 2.7459078 5.1465591) with tilt (-1.569337 0 0)
  triclinic box = (0 0 0) to (3.1707012 2.7459078 5.1465591) with tilt (-1.5853506 0 0)
  triclinic box = (0 0 0) to (3.1707012 2.7459078 5.1465591) with tilt (-1.5853506 0 0)
  triclinic box = (0 0 0) to (3.1707012 2.7459078 5.1465591) with tilt (-1.5853506 0 0)
echo none
run 0
WARNING: No fixes with time integration, atoms won't move (src/src/verlet.cpp:60)
Per MPI rank memory allocation (min/avg/max) = 3.252 | 3.252 | 3.252 Mbytes
    PotEng          Pxx           E_mol          E_coul    
-3.0951582      10720.346      0              0            
Loop time of 1.042e-06 on 1 procs for 0 steps with 2 atoms

96.0% CPU use with 1 MPI tasks x no OpenMP threads

MPI task timing breakdown:
Section |  min time  |  avg time  |  max time  |%varavg| %total
---------------------------------------------------------------
Pair    | 0          | 0          | 0          |   0.0 |  0.00
Neigh   | 0          | 0          | 0          |   0.0 |  0.00
Comm    | 0          | 0          | 0          |   0.0 |  0.00
Output  | 0          | 0          | 0          |   0.0 |  0.00
Modify  | 0          | 0          | 0          |   0.0 |  0.00
Other   |            | 1.042e-06  |            |       |100.00

Nlocal:              2 ave           2 max           2 min
Histogram: 1 0 0 0 0 0 0 0 0 0
Nghost:            499 ave         499 max         499 min
Histogram: 1 0 0 0 0 0 0 0 0 0
Neighs:            146 ave         146 max         146 min
Histogram: 1 0 0 0 0 0 0 0 0 0

Total # of neighbors = 146
Ave neighs/atom = 73
Neighbor list builds = 0
Dangerous builds = 0
set atom * x 0.0 y 0.0 z 0.0
Setting atom values ...
  2 settings made for x
  2 settings made for y
  2 settings made for z
change_box all     x final 0 3.202728473465918 y final 0 2.77364421944524 z final 0 5.198544558182864      xy final -1.601364236732959 xz final 0.0 yz final 0.0 units box
Changing box ...
  triclinic box = (0 0 0) to (3.2027285 2.7459078 5.1465591) with tilt (-1.5853506 0 0)
  triclinic box = (0 0 0) to (3.2027285 2.7736442 5.1465591) with tilt (-1.5853506 0 0)
  triclinic box = (0 0 0) to (3.2027285 2.7736442 5.1985446) with tilt (-1.5853506 0 0)
  triclinic box = (0 0 0) to (3.2027285 2.7736442 5.1985446) with tilt (-1.6013642 0 0)
  triclinic box = (0 0 0) to (3.2027285 2.7736442 5.1985446) with tilt (-1.6013642 0 0)
  triclinic box = (0 0 0) to (3.2027285 2.7736442 5.1985446) with tilt (-1.6013642 0 0)
echo none
run 0
WARNING: No fixes with time integration, atoms won't move (src/src/verlet.cpp:60)
Per MPI rank memory allocation (min/avg/max) = 3.252 | 3.252 | 3.252 Mbytes
    PotEng          Pxx           E_mol          E_coul    
-3.0999416     -435.03273      0              0            
Loop time of 1e-06 on 1 procs for 0 steps with 2 atoms

200.0% CPU use with 1 MPI tasks x no OpenMP threads

MPI task timing breakdown:
Section |  min time  |  avg time  |  max time  |%varavg| %total
---------------------------------------------------------------
Pair    | 0          | 0          | 0          |   0.0 |  0.00
Neigh   | 0          | 0          | 0          |   0.0 |  0.00
Comm    | 0          | 0          | 0          |   0.0 |  0.00
Output  | 0          | 0          | 0          |   0.0 |  0.00
Modify  | 0          | 0          | 0          |   0.0 |  0.00
Other   |            | 1e-06      |            |       |100.00

Nlocal:              2 ave           2 max           2 min
Histogram: 1 0 0 0 0 0 0 0 0 0
Nghost:            499 ave         499 max         499 min
Histogram: 1 0 0 0 0 0 0 0 0 0
Neighs:            134 ave         134 max         134 min
Histogram: 1 0 0 0 0 0 0 0 0 0

Total # of neighbors = 134
Ave neighs/atom = 67
Neighbor list builds = 0
Dangerous builds = 0
set atom * x 0.0 y 0.0 z 0.0
Setting atom values ...
  2 settings made for x
  2 settings made for y
  2 settings made for z
change_box all     x final 0 3.234755758200578 y final 0 2.8013806616396932 z final 0 5.250530003764695      xy final -1.617377879100289 xz final 0.0 yz final 0.0 units box
Changing box ...
  triclinic box = (0 0 0) to (3.2347558 2.7736442 5.1985446) with tilt (-1.6013642 0 0)
  triclinic box = (0 0 0) to (3.2347558 2.8013807 5.1985446) with tilt (-1.6013642 0 0)
  triclinic box = (0 0 0) to (3.2347558 2.8013807 5.25053) with tilt (-1.6013642 0 0)
  triclinic box = (0 0 0) to (3.2347558 2.8013807 5.25053) with tilt (-1.6173779 0 0)
  triclinic box = (0 0 0) to (3.2347558 2.8013807 5.25053) with tilt (-1.6173779 0 0)
  triclinic box = (0 0 0) to (3.2347558 2.8013807 5.25053) with tilt (-1.6173779 0 0)
echo none
run 0
WARNING: No fixes with time integration, atoms won't move (src/src/verlet.cpp:60)
Per MPI rank memory allocation (min/avg/max) = 3.252 | 3.252 | 3.252 Mbytes
    PotEng          Pxx           E_mol          E_coul    
-3.0955836     -10090.971      0              0            
Loop time of 7.5e-07 on 1 procs for 0 steps with 2 atoms

266.7% CPU use with 1 MPI tasks x no OpenMP threads

MPI task timing breakdown:
Section |  min time  |  avg time  |  max time  |%varavg| %total
---------------------------------------------------------------
Pair    | 0          | 0          | 0          |   0.0 |  0.00
Neigh   | 0          | 0          | 0          |   0.0 |  0.00
Comm    | 0          | 0          | 0          |   0.0 |  0.00
Output  | 0          | 0          | 0          |   0.0 |  0.00
Modify  | 0          | 0          | 0          |   0.0 |  0.00
Other   |            | 7.5e-07    |            |       |100.00

Nlocal:              2 ave           2 max           2 min
Histogram: 1 0 0 0 0 0 0 0 0 0
Nghost:            499 ave         499 max         499 min
Histogram: 1 0 0 0 0 0 0 0 0 0
Neighs:            134 ave         134 max         134 min
Histogram: 1 0 0 0 0 0 0 0 0 0

Total # of neighbors = 134
Ave neighs/atom = 67
Neighbor list builds = 0
Dangerous builds = 0
set atom * x 0.0 y 0.0 z 0.0
Setting atom values ...
  2 settings made for x
  2 settings made for y
  2 settings made for z
change_box all     x final 0 3.2667830429352365 y final 0 2.829117103834145 z final 0 5.302515449346521      xy final -1.6333915214676182 xz final 0.0 yz final 0.0 units box
Changing box ...
  triclinic box = (0 0 0) to (3.266783 2.8013807 5.25053) with tilt (-1.6173779 0 0)
  triclinic box = (0 0 0) to (3.266783 2.8291171 5.25053) with tilt (-1.6173779 0 0)
  triclinic box = (0 0 0) to (3.266783 2.8291171 5.3025154) with tilt (-1.6173779 0 0)
  triclinic box = (0 0 0) to (3.266783 2.8291171 5.3025154) with tilt (-1.6333915 0 0)
  triclinic box = (0 0 0) to (3.266783 2.8291171 5.3025154) with tilt (-1.6333915 0 0)
  triclinic box = (0 0 0) to (3.266783 2.8291171 5.3025154) with tilt (-1.6333915 0 0)
echo none
run 0
WARNING: No fixes with time integration, atoms won't move (src/src/verlet.cpp:60)
Per MPI rank memory allocation (min/avg/max) = 3.252 | 3.252 | 3.252 Mbytes
    PotEng          Pxx           E_mol          E_coul    
-3.0829995     -18327.464      0              0            
Loop time of 9.17e-07 on 1 procs for 0 steps with 2 atoms

109.1% CPU use with 1 MPI tasks x no OpenMP threads

MPI task timing breakdown:
Section |  min time  |  avg time  |  max time  |%varavg| %total
---------------------------------------------------------------
Pair    | 0          | 0          | 0          |   0.0 |  0.00
Neigh   | 0          | 0          | 0          |   0.0 |  0.00
Comm    | 0          | 0          | 0          |   0.0 |  0.00
Output  | 0          | 0          | 0          |   0.0 |  0.00
Modify  | 0          | 0          | 0          |   0.0 |  0.00
Other   |            | 9.17e-07   |            |       |100.00

Nlocal:              2 ave           2 max           2 min
Histogram: 1 0 0 0 0 0 0 0 0 0
Nghost:            499 ave         499 max         499 min
Histogram: 1 0 0 0 0 0 0 0 0 0
Neighs:            134 ave         134 max         134 min
Histogram: 1 0 0 0 0 0 0 0 0 0

Total # of neighbors = 134
Ave neighs/atom = 67
Neighbor list builds = 0
Dangerous builds = 0
set atom * x 0.0 y 0.0 z 0.0
Setting atom values ...
  2 settings made for x
  2 settings made for y
  2 settings made for z
change_box all     x final 0 3.2988103276698966 y final 0 2.856853546028598 z final 0 5.354500894928352      xy final -1.6494051638349483 xz final 0.0 yz final 0.0 units box
Changing box ...
  triclinic box = (0 0 0) to (3.2988103 2.8291171 5.3025154) with tilt (-1.6333915 0 0)
  triclinic box = (0 0 0) to (3.2988103 2.8568535 5.3025154) with tilt (-1.6333915 0 0)
  triclinic box = (0 0 0) to (3.2988103 2.8568535 5.3545009) with tilt (-1.6333915 0 0)
  triclinic box = (0 0 0) to (3.2988103 2.8568535 5.3545009) with tilt (-1.6494052 0 0)
  triclinic box = (0 0 0) to (3.2988103 2.8568535 5.3545009) with tilt (-1.6494052 0 0)
  triclinic box = (0 0 0) to (3.2988103 2.8568535 5.3545009) with tilt (-1.6494052 0 0)
echo none
run 0
WARNING: No fixes with time integration, atoms won't move (src/src/verlet.cpp:60)
Per MPI rank memory allocation (min/avg/max) = 3.252 | 3.252 | 3.252 Mbytes
    PotEng          Pxx           E_mol          E_coul    
-3.0631499     -25297.507      0              0            
Loop time of 1e-06 on 1 procs for 0 steps with 2 atoms

100.0% CPU use with 1 MPI tasks x no OpenMP threads

MPI task timing breakdown:
Section |  min time  |  avg time  |  max time  |%varavg| %total
---------------------------------------------------------------
Pair    | 0          | 0          | 0          |   0.0 |  0.00
Neigh   | 0          | 0          | 0          |   0.0 |  0.00
Comm    | 0          | 0          | 0          |   0.0 |  0.00
Output  | 0          | 0          | 0          |   0.0 |  0.00
Modify  | 0          | 0          | 0          |   0.0 |  0.00
Other   |            | 1e-06      |            |       |100.00

Nlocal:              2 ave           2 max           2 min
Histogram: 1 0 0 0 0 0 0 0 0 0
Nghost:            499 ave         499 max         499 min
Histogram: 1 0 0 0 0 0 0 0 0 0
Neighs:            134 ave         134 max         134 min
Histogram: 1 0 0 0 0 0 0 0 0 0

Total # of neighbors = 134
Ave neighs/atom = 67
Neighbor list builds = 0
Dangerous builds = 0
set atom * x 0.0 y 0.0 z 0.0
Setting atom values ...
  2 settings made for x
  2 settings made for y
  2 settings made for z
change_box all     x final 0 3.330837612404555 y final 0 2.88458998822305 z final 0 5.406486340510179      xy final -1.6654188062022774 xz final 0.0 yz final 0.0 units box
Changing box ...
  triclinic box = (0 0 0) to (3.3308376 2.8568535 5.3545009) with tilt (-1.6494052 0 0)
  triclinic box = (0 0 0) to (3.3308376 2.88459 5.3545009) with tilt (-1.6494052 0 0)
  triclinic box = (0 0 0) to (3.3308376 2.88459 5.4064863) with tilt (-1.6494052 0 0)
  triclinic box = (0 0 0) to (3.3308376 2.88459 5.4064863) with tilt (-1.6654188 0 0)
  triclinic box = (0 0 0) to (3.3308376 2.88459 5.4064863) with tilt (-1.6654188 0 0)
  triclinic box = (0 0 0) to (3.3308376 2.88459 5.4064863) with tilt (-1.6654188 0 0)
echo none
run 0
WARNING: No fixes with time integration, atoms won't move (src/src/verlet.cpp:60)
Per MPI rank memory allocation (min/avg/max) = 3.252 | 3.252 | 3.252 Mbytes
    PotEng          Pxx           E_mol          E_coul    
-3.0366595     -31871.947      0              0            
Loop time of 7.08e-07 on 1 procs for 0 steps with 2 atoms

282.5% CPU use with 1 MPI tasks x no OpenMP threads

MPI task timing breakdown:
Section |  min time  |  avg time  |  max time  |%varavg| %total
---------------------------------------------------------------
Pair    | 0          | 0          | 0          |   0.0 |  0.00
Neigh   | 0          | 0          | 0          |   0.0 |  0.00
Comm    | 0          | 0          | 0          |   0.0 |  0.00
Output  | 0          | 0          | 0          |   0.0 |  0.00
Modify  | 0          | 0          | 0          |   0.0 |  0.00
Other   |            | 7.08e-07   |            |       |100.00

Nlocal:              2 ave           2 max           2 min
Histogram: 1 0 0 0 0 0 0 0 0 0
Nghost:            499 ave         499 max         499 min
Histogram: 1 0 0 0 0 0 0 0 0 0
Neighs:            134 ave         134 max         134 min
Histogram: 1 0 0 0 0 0 0 0 0 0

Total # of neighbors = 134
Ave neighs/atom = 67
Neighbor list builds = 0
Dangerous builds = 0
set atom * x 0.0 y 0.0 z 0.0
Setting atom values ...
  2 settings made for x
  2 settings made for y
  2 settings made for z
change_box all     x final 0 3.362864897139215 y final 0 2.912326430417503 z final 0 5.458471786092009      xy final -1.6814324485696075 xz final 0.0 yz final 0.0 units box
Changing box ...
  triclinic box = (0 0 0) to (3.3628649 2.88459 5.4064863) with tilt (-1.6654188 0 0)
  triclinic box = (0 0 0) to (3.3628649 2.9123264 5.4064863) with tilt (-1.6654188 0 0)
  triclinic box = (0 0 0) to (3.3628649 2.9123264 5.4584718) with tilt (-1.6654188 0 0)
  triclinic box = (0 0 0) to (3.3628649 2.9123264 5.4584718) with tilt (-1.6814324 0 0)
  triclinic box = (0 0 0) to (3.3628649 2.9123264 5.4584718) with tilt (-1.6814324 0 0)
  triclinic box = (0 0 0) to (3.3628649 2.9123264 5.4584718) with tilt (-1.6814324 0 0)
echo none
run 0
WARNING: No fixes with time integration, atoms won't move (src/src/verlet.cpp:60)
Per MPI rank memory allocation (min/avg/max) = 3.252 | 3.252 | 3.252 Mbytes
    PotEng          Pxx           E_mol          E_coul    
-3.0035365     -38225.061      0              0            
Loop time of 9.17e-07 on 1 procs for 0 steps with 2 atoms

109.1% CPU use with 1 MPI tasks x no OpenMP threads

MPI task timing breakdown:
Section |  min time  |  avg time  |  max time  |%varavg| %total
---------------------------------------------------------------
Pair    | 0          | 0          | 0          |   0.0 |  0.00
Neigh   | 0          | 0          | 0          |   0.0 |  0.00
Comm    | 0          | 0          | 0          |   0.0 |  0.00
Output  | 0          | 0          | 0          |   0.0 |  0.00
Modify  | 0          | 0          | 0          |   0.0 |  0.00
Other   |            | 9.17e-07   |            |       |100.00

Nlocal:              2 ave           2 max           2 min
Histogram: 1 0 0 0 0 0 0 0 0 0
Nghost:            499 ave         499 max         499 min
Histogram: 1 0 0 0 0 0 0 0 0 0
Neighs:            134 ave         134 max         134 min
Histogram: 1 0 0 0 0 0 0 0 0 0

Total # of neighbors = 134
Ave neighs/atom = 67
Neighbor list builds = 0
Dangerous builds = 0
set atom * x 0.0 y 0.0 z 0.0
Setting atom values ...
  2 settings made for x
  2 settings made for y
  2 settings made for z
change_box all     x final 0 3.3948921818738733 y final 0 2.940062872611955 z final 0 5.510457231673836      xy final -1.6974460909369367 xz final 0.0 yz final 0.0 units box
Changing box ...
  triclinic box = (0 0 0) to (3.3948922 2.9123264 5.4584718) with tilt (-1.6814324 0 0)
  triclinic box = (0 0 0) to (3.3948922 2.9400629 5.4584718) with tilt (-1.6814324 0 0)
  triclinic box = (0 0 0) to (3.3948922 2.9400629 5.5104572) with tilt (-1.6814324 0 0)
  triclinic box = (0 0 0) to (3.3948922 2.9400629 5.5104572) with tilt (-1.6974461 0 0)
  triclinic box = (0 0 0) to (3.3948922 2.9400629 5.5104572) with tilt (-1.6974461 0 0)
  triclinic box = (0 0 0) to (3.3948922 2.9400629 5.5104572) with tilt (-1.6974461 0 0)
echo none
run 0
WARNING: No fixes with time integration, atoms won't move (src/src/verlet.cpp:60)
Per MPI rank memory allocation (min/avg/max) = 3.252 | 3.252 | 3.252 Mbytes
    PotEng          Pxx           E_mol          E_coul    
-2.9639252     -44132.607      0              0            
Loop time of 8.75e-07 on 1 procs for 0 steps with 2 atoms

114.3% CPU use with 1 MPI tasks x no OpenMP threads

MPI task timing breakdown:
Section |  min time  |  avg time  |  max time  |%varavg| %total
---------------------------------------------------------------
Pair    | 0          | 0          | 0          |   0.0 |  0.00
Neigh   | 0          | 0          | 0          |   0.0 |  0.00
Comm    | 0          | 0          | 0          |   0.0 |  0.00
Output  | 0          | 0          | 0          |   0.0 |  0.00
Modify  | 0          | 0          | 0          |   0.0 |  0.00
Other   |            | 8.75e-07   |            |       |100.00

Nlocal:              2 ave           2 max           2 min
Histogram: 1 0 0 0 0 0 0 0 0 0
Nghost:            499 ave         499 max         499 min
Histogram: 1 0 0 0 0 0 0 0 0 0
Neighs:            128 ave         128 max         128 min
Histogram: 1 0 0 0 0 0 0 0 0 0

Total # of neighbors = 128
Ave neighs/atom = 64
Neighbor list builds = 0
Dangerous builds = 0
set atom * x 0.0 y 0.0 z 0.0
Setting atom values ...
  2 settings made for x
  2 settings made for y
  2 settings made for z
change_box all     x final 0 3.4269194666085334 y final 0 2.967799314806408 z final 0 5.5624426772556665      xy final -1.7134597333042667 xz final 0.0 yz final 0.0 units box
Changing box ...
  triclinic box = (0 0 0) to (3.4269195 2.9400629 5.5104572) with tilt (-1.6974461 0 0)
  triclinic box = (0 0 0) to (3.4269195 2.9677993 5.5104572) with tilt (-1.6974461 0 0)
  triclinic box = (0 0 0) to (3.4269195 2.9677993 5.5624427) with tilt (-1.6974461 0 0)
  triclinic box = (0 0 0) to (3.4269195 2.9677993 5.5624427) with tilt (-1.7134597 0 0)
  triclinic box = (0 0 0) to (3.4269195 2.9677993 5.5624427) with tilt (-1.7134597 0 0)
  triclinic box = (0 0 0) to (3.4269195 2.9677993 5.5624427) with tilt (-1.7134597 0 0)
echo none
run 0
WARNING: No fixes with time integration, atoms won't move (src/src/verlet.cpp:60)
Per MPI rank memory allocation (min/avg/max) = 3.252 | 3.252 | 3.252 Mbytes
    PotEng          Pxx           E_mol          E_coul    
-2.9181391     -49460.053      0              0            
Loop time of 1.084e-06 on 1 procs for 0 steps with 2 atoms

0.0% CPU use with 1 MPI tasks x no OpenMP threads

MPI task timing breakdown:
Section |  min time  |  avg time  |  max time  |%varavg| %total
---------------------------------------------------------------
Pair    | 0          | 0          | 0          |   0.0 |  0.00
Neigh   | 0          | 0          | 0          |   0.0 |  0.00
Comm    | 0          | 0          | 0          |   0.0 |  0.00
Output  | 0          | 0          | 0          |   0.0 |  0.00
Modify  | 0          | 0          | 0          |   0.0 |  0.00
Other   |            | 1.084e-06  |            |       |100.00

Nlocal:              2 ave           2 max           2 min
Histogram: 1 0 0 0 0 0 0 0 0 0
Nghost:            499 ave         499 max         499 min
Histogram: 1 0 0 0 0 0 0 0 0 0
Neighs:            128 ave         128 max         128 min
Histogram: 1 0 0 0 0 0 0 0 0 0

Total # of neighbors = 128
Ave neighs/atom = 64
Neighbor list builds = 0
Dangerous builds = 0
set atom * x 0.0 y 0.0 z 0.0
Setting atom values ...
  2 settings made for x
  2 settings made for y
  2 settings made for z
change_box all     x final 0 3.4589467513431917 y final 0 2.9955357570008596 z final 0 5.614428122837494      xy final -1.7294733756715959 xz final 0.0 yz final 0.0 units box
Changing box ...
  triclinic box = (0 0 0) to (3.4589468 2.9677993 5.5624427) with tilt (-1.7134597 0 0)
  triclinic box = (0 0 0) to (3.4589468 2.9955358 5.5624427) with tilt (-1.7134597 0 0)
  triclinic box = (0 0 0) to (3.4589468 2.9955358 5.6144281) with tilt (-1.7134597 0 0)
  triclinic box = (0 0 0) to (3.4589468 2.9955358 5.6144281) with tilt (-1.7294734 0 0)
  triclinic box = (0 0 0) to (3.4589468 2.9955358 5.6144281) with tilt (-1.7294734 0 0)
  triclinic box = (0 0 0) to (3.4589468 2.9955358 5.6144281) with tilt (-1.7294734 0 0)
echo none
run 0
WARNING: No fixes with time integration, atoms won't move (src/src/verlet.cpp:60)
Per MPI rank memory allocation (min/avg/max) = 3.252 | 3.252 | 3.252 Mbytes
    PotEng          Pxx           E_mol          E_coul    
-2.8665968     -54135.074      0              0            
Loop time of 7.92e-07 on 1 procs for 0 steps with 2 atoms

126.3% CPU use with 1 MPI tasks x no OpenMP threads

MPI task timing breakdown:
Section |  min time  |  avg time  |  max time  |%varavg| %total
---------------------------------------------------------------
Pair    | 0          | 0          | 0          |   0.0 |  0.00
Neigh   | 0          | 0          | 0          |   0.0 |  0.00
Comm    | 0          | 0          | 0          |   0.0 |  0.00
Output  | 0          | 0          | 0          |   0.0 |  0.00
Modify  | 0          | 0          | 0          |   0.0 |  0.00
Other   |            | 7.92e-07   |            |       |100.00

Nlocal:              2 ave           2 max           2 min
Histogram: 1 0 0 0 0 0 0 0 0 0
Nghost:            499 ave         499 max         499 min
Histogram: 1 0 0 0 0 0 0 0 0 0
Neighs:            116 ave         116 max         116 min
Histogram: 1 0 0 0 0 0 0 0 0 0

Total # of neighbors = 116
Ave neighs/atom = 58
Neighbor list builds = 0
Dangerous builds = 0
set atom * x 0.0 y 0.0 z 0.0
Setting atom values ...
  2 settings made for x
  2 settings made for y
  2 settings made for z
change_box all     x final 0 3.490974036077852 y final 0 3.0232721991953126 z final 0 5.6664135684193235      xy final -1.745487018038926 xz final 0.0 yz final 0.0 units box
Changing box ...
  triclinic box = (0 0 0) to (3.490974 2.9955358 5.6144281) with tilt (-1.7294734 0 0)
  triclinic box = (0 0 0) to (3.490974 3.0232722 5.6144281) with tilt (-1.7294734 0 0)
  triclinic box = (0 0 0) to (3.490974 3.0232722 5.6664136) with tilt (-1.7294734 0 0)
  triclinic box = (0 0 0) to (3.490974 3.0232722 5.6664136) with tilt (-1.745487 0 0)
  triclinic box = (0 0 0) to (3.490974 3.0232722 5.6664136) with tilt (-1.745487 0 0)
  triclinic box = (0 0 0) to (3.490974 3.0232722 5.6664136) with tilt (-1.745487 0 0)
echo none
run 0
WARNING: No fixes with time integration, atoms won't move (src/src/verlet.cpp:60)
Per MPI rank memory allocation (min/avg/max) = 3.252 | 3.252 | 3.252 Mbytes
    PotEng          Pxx           E_mol          E_coul    
-2.8097835     -58123.935      0              0            
Loop time of 9.17e-07 on 1 procs for 0 steps with 2 atoms

0.0% CPU use with 1 MPI tasks x no OpenMP threads

MPI task timing breakdown:
Section |  min time  |  avg time  |  max time  |%varavg| %total
---------------------------------------------------------------
Pair    | 0          | 0          | 0          |   0.0 |  0.00
Neigh   | 0          | 0          | 0          |   0.0 |  0.00
Comm    | 0          | 0          | 0          |   0.0 |  0.00
Output  | 0          | 0          | 0          |   0.0 |  0.00
Modify  | 0          | 0          | 0          |   0.0 |  0.00
Other   |            | 9.17e-07   |            |       |100.00

Nlocal:              2 ave           2 max           2 min
Histogram: 1 0 0 0 0 0 0 0 0 0
Nghost:            499 ave         499 max         499 min
Histogram: 1 0 0 0 0 0 0 0 0 0
Neighs:            104 ave         104 max         104 min
Histogram: 1 0 0 0 0 0 0 0 0 0

Total # of neighbors = 104
Ave neighs/atom = 52
Neighbor list builds = 0
Dangerous builds = 0
set atom * x 0.0 y 0.0 z 0.0
Setting atom values ...
  2 settings made for x
  2 settings made for y
  2 settings made for z
change_box all     x final 0 3.52300132081251 y final 0 3.0510086413897644 z final 0 5.718399014001151      xy final -1.761500660406255 xz final 0.0 yz final 0.0 units box
Changing box ...
  triclinic box = (0 0 0) to (3.5230013 3.0232722 5.6664136) with tilt (-1.745487 0 0)
  triclinic box = (0 0 0) to (3.5230013 3.0510086 5.6664136) with tilt (-1.745487 0 0)
  triclinic box = (0 0 0) to (3.5230013 3.0510086 5.718399) with tilt (-1.745487 0 0)
  triclinic box = (0 0 0) to (3.5230013 3.0510086 5.718399) with tilt (-1.7615007 0 0)
  triclinic box = (0 0 0) to (3.5230013 3.0510086 5.718399) with tilt (-1.7615007 0 0)
  triclinic box = (0 0 0) to (3.5230013 3.0510086 5.718399) with tilt (-1.7615007 0 0)
echo none
run 0
WARNING: No fixes with time integration, atoms won't move (src/src/verlet.cpp:60)
Per MPI rank memory allocation (min/avg/max) = 3.236 | 3.236 | 3.236 Mbytes
    PotEng          Pxx           E_mol          E_coul    
-2.7482316     -61412.988      0              0            
Loop time of 7.92e-07 on 1 procs for 0 steps with 2 atoms

126.3% CPU use with 1 MPI tasks x no OpenMP threads

MPI task timing breakdown:
Section |  min time  |  avg time  |  max time  |%varavg| %total
---------------------------------------------------------------
Pair    | 0          | 0          | 0          |   0.0 |  0.00
Neigh   | 0          | 0          | 0          |   0.0 |  0.00
Comm    | 0          | 0          | 0          |   0.0 |  0.00
Output  | 0          | 0          | 0          |   0.0 |  0.00
Modify  | 0          | 0          | 0          |   0.0 |  0.00
Other   |            | 7.92e-07   |            |       |100.00

Nlocal:              2 ave           2 max           2 min
Histogram: 1 0 0 0 0 0 0 0 0 0
Nghost:            387 ave         387 max         387 min
Histogram: 1 0 0 0 0 0 0 0 0 0
Neighs:            104 ave         104 max         104 min
Histogram: 1 0 0 0 0 0 0 0 0 0

Total # of neighbors = 104
Ave neighs/atom = 52
Neighbor list builds = 0
Dangerous builds = 0
set atom * x 0.0 y 0.0 z 0.0
Setting atom values ...
  2 settings made for x
  2 settings made for y
  2 settings made for z
change_box all     x final 0 9.608185420397755 y final 0 8.320932658335721 z final 0 15.595633674548594      xy final -4.804092710198877 xz final 0.0 yz final 0.0 units box
Changing box ...
  triclinic box = (0 0 0) to (9.6081854 3.0510086 5.718399) with tilt (-1.7615007 0 0)
  triclinic box = (0 0 0) to (9.6081854 8.3209327 5.718399) with tilt (-1.7615007 0 0)
  triclinic box = (0 0 0) to (9.6081854 8.3209327 15.595634) with tilt (-1.7615007 0 0)
  triclinic box = (0 0 0) to (9.6081854 8.3209327 15.595634) with tilt (-4.8040927 0 0)
  triclinic box = (0 0 0) to (9.6081854 8.3209327 15.595634) with tilt (-4.8040927 0 0)
  triclinic box = (0 0 0) to (9.6081854 8.3209327 15.595634) with tilt (-4.8040927 0 0)
echo none
Created 52 atoms
  using lattice units in triclinic box = (0 0 0) to (9.6081854 8.3209327 15.595634) with tilt (-4.8040927 0 0)
  create_atoms CPU = 0.000 seconds
Setting atom values ...
  1 settings made for type
Setting atom values ...
  1 settings made for type
Setting atom values ...
  1 settings made for type
Setting atom values ...
  1 settings made for type
Setting atom values ...
  1 settings made for type
Setting atom values ...
  1 settings made for type
Setting atom values ...
  1 settings made for type
Setting atom values ...
  1 settings made for type
Setting atom values ...
  1 settings made for type
Setting atom values ...
  1 settings made for type
Setting atom values ...
  1 settings made for type
Setting atom values ...
  1 settings made for type
Setting atom values ...
  1 settings made for type
Setting atom values ...
  1 settings made for type
Setting atom values ...
  1 settings made for type
Setting atom values ...
  1 settings made for type
Setting atom values ...
  1 settings made for type
Setting atom values ...
  1 settings made for type
Setting atom values ...
  1 settings made for type
Setting atom values ...
  1 settings made for type
Setting atom values ...
  1 settings made for type
Setting atom values ...
  1 settings made for type
Setting atom values ...
  1 settings made for type
Setting atom values ...
  1 settings made for type
Setting atom values ...
  1 settings made for type
Setting atom values ...
  1 settings made for type
Setting atom values ...
  1 settings made for type
Setting atom values ...
  1 settings made for type
Setting atom values ...
  1 settings made for type
Setting atom values ...
  1 settings made for type
Setting atom values ...
  1 settings made for type
Setting atom values ...
  1 settings made for type
Setting atom values ...
  1 settings made for type
Setting atom values ...
  1 settings made for type
Setting atom values ...
  1 settings made for type
Setting atom values ...
  1 settings made for type
Setting atom values ...
  1 settings made for type
Setting atom values ...
  1 settings made for type
Setting atom values ...
  1 settings made for type
Setting atom values ...
  1 settings made for type
Setting atom values ...
  1 settings made for type
Setting atom values ...
  1 settings made for type
Setting atom values ...
  1 settings made for type
Setting atom values ...
  1 settings made for type
Setting atom values ...
  1 settings made for type
Setting atom values ...
  1 settings made for type
Setting atom values ...
  1 settings made for type
Setting atom values ...
  1 settings made for type
Setting atom values ...
  1 settings made for type
Setting atom values ...
  1 settings made for type
Setting atom values ...
  1 settings made for type
Setting atom values ...
  1 settings made for type
run 0
WARNING: No fixes with time integration, atoms won't move (src/src/verlet.cpp:60)
Per MPI rank memory allocation (min/avg/max) = 3.256 | 3.256 | 3.256 Mbytes
    PotEng          Pxx           E_mol          E_coul    
-83.698423     -435.03273      0              0            
Loop time of 9.59e-07 on 1 procs for 0 steps with 54 atoms

208.6% CPU use with 1 MPI tasks x no OpenMP threads

MPI task timing breakdown:
Section |  min time  |  avg time  |  max time  |%varavg| %total
---------------------------------------------------------------
Pair    | 0          | 0          | 0          |   0.0 |  0.00
Neigh   | 0          | 0          | 0          |   0.0 |  0.00
Comm    | 0          | 0          | 0          |   0.0 |  0.00
Output  | 0          | 0          | 0          |   0.0 |  0.00
Modify  | 0          | 0          | 0          |   0.0 |  0.00
Other   |            | 9.59e-07   |            |       |100.00

Nlocal:             54 ave          54 max          54 min
Histogram: 1 0 0 0 0 0 0 0 0 0
Nghost:           1113 ave        1113 max        1113 min
Histogram: 1 0 0 0 0 0 0 0 0 0
Neighs:           3618 ave        3618 max        3618 min
Histogram: 1 0 0 0 0 0 0 0 0 0

Total # of neighbors = 3618
Ave neighs/atom = 67
Neighbor list builds = 0
Dangerous builds = 0
set atom * x 0.0 y 0.0 z 0.0
Setting atom values ...
  54 settings made for x
  54 settings made for y
  54 settings made for z
change_box all     x final 0 9.4160217119898 y final 0 8.320932658335721 z final 0 15.595633674548594      xy final -4.7080108559949 xz final 0.0 yz final 0.0 units box
Changing box ...
WARNING: Triclinic box skew is large (src/src/domain.cpp:224)
  triclinic box = (0 0 0) to (9.4160217 8.3209327 15.595634) with tilt (-4.8040927 0 0)
WARNING: Triclinic box skew is large (src/src/domain.cpp:224)
  triclinic box = (0 0 0) to (9.4160217 8.3209327 15.595634) with tilt (-4.8040927 0 0)
WARNING: Triclinic box skew is large (src/src/domain.cpp:224)
  triclinic box = (0 0 0) to (9.4160217 8.3209327 15.595634) with tilt (-4.8040927 0 0)
  triclinic box = (0 0 0) to (9.4160217 8.3209327 15.595634) with tilt (-4.7080109 0 0)
  triclinic box = (0 0 0) to (9.4160217 8.3209327 15.595634) with tilt (-4.7080109 0 0)
  triclinic box = (0 0 0) to (9.4160217 8.3209327 15.595634) with tilt (-4.7080109 0 0)
echo none
run 0
WARNING: No fixes with time integration, atoms won't move (src/src/verlet.cpp:60)
Per MPI rank memory allocation (min/avg/max) = 3.256 | 3.256 | 3.256 Mbytes
    PotEng          Pxx           E_mol          E_coul    
-83.605577      13053.199      0              0            
Loop time of 9.59e-07 on 1 procs for 0 steps with 54 atoms

0.0% CPU use with 1 MPI tasks x no OpenMP threads

MPI task timing breakdown:
Section |  min time  |  avg time  |  max time  |%varavg| %total
---------------------------------------------------------------
Pair    | 0          | 0          | 0          |   0.0 |  0.00
Neigh   | 0          | 0          | 0          |   0.0 |  0.00
Comm    | 0          | 0          | 0          |   0.0 |  0.00
Output  | 0          | 0          | 0          |   0.0 |  0.00
Modify  | 0          | 0          | 0          |   0.0 |  0.00
Other   |            | 9.59e-07   |            |       |100.00

Nlocal:             54 ave          54 max          54 min
Histogram: 1 0 0 0 0 0 0 0 0 0
Nghost:           1176 ave        1176 max        1176 min
Histogram: 1 0 0 0 0 0 0 0 0 0
Neighs:           3618 ave        3618 max        3618 min
Histogram: 1 0 0 0 0 0 0 0 0 0

Total # of neighbors = 3618
Ave neighs/atom = 67
Neighbor list builds = 0
Dangerous builds = 0
set atom * x 0.0 y 0.0 z 0.0
Setting atom values ...
  54 settings made for x
  54 settings made for y
  54 settings made for z
change_box all     x final 0 9.512103566193778 y final 0 8.320932658335721 z final 0 15.595633674548594      xy final -4.756051783096889 xz final 0.0 yz final 0.0 units box
Changing box ...
  triclinic box = (0 0 0) to (9.5121036 8.3209327 15.595634) with tilt (-4.7080109 0 0)
  triclinic box = (0 0 0) to (9.5121036 8.3209327 15.595634) with tilt (-4.7080109 0 0)
  triclinic box = (0 0 0) to (9.5121036 8.3209327 15.595634) with tilt (-4.7080109 0 0)
  triclinic box = (0 0 0) to (9.5121036 8.3209327 15.595634) with tilt (-4.7560518 0 0)
  triclinic box = (0 0 0) to (9.5121036 8.3209327 15.595634) with tilt (-4.7560518 0 0)
  triclinic box = (0 0 0) to (9.5121036 8.3209327 15.595634) with tilt (-4.7560518 0 0)
echo none
run 0
WARNING: No fixes with time integration, atoms won't move (src/src/verlet.cpp:60)
Per MPI rank memory allocation (min/avg/max) = 3.256 | 3.256 | 3.256 Mbytes
    PotEng          Pxx           E_mol          E_coul    
-83.678653      5874.9749      0              0            
Loop time of 8.33e-07 on 1 procs for 0 steps with 54 atoms

120.0% CPU use with 1 MPI tasks x no OpenMP threads

MPI task timing breakdown:
Section |  min time  |  avg time  |  max time  |%varavg| %total
---------------------------------------------------------------
Pair    | 0          | 0          | 0          |   0.0 |  0.00
Neigh   | 0          | 0          | 0          |   0.0 |  0.00
Comm    | 0          | 0          | 0          |   0.0 |  0.00
Output  | 0          | 0          | 0          |   0.0 |  0.00
Modify  | 0          | 0          | 0          |   0.0 |  0.00
Other   |            | 8.33e-07   |            |       |100.00

Nlocal:             54 ave          54 max          54 min
Histogram: 1 0 0 0 0 0 0 0 0 0
Nghost:           1113 ave        1113 max        1113 min
Histogram: 1 0 0 0 0 0 0 0 0 0
Neighs:           3618 ave        3618 max        3618 min
Histogram: 1 0 0 0 0 0 0 0 0 0

Total # of neighbors = 3618
Ave neighs/atom = 67
Neighbor list builds = 0
Dangerous builds = 0
set atom * x 0.0 y 0.0 z 0.0
Setting atom values ...
  54 settings made for x
  54 settings made for y
  54 settings made for z
change_box all     x final 0 9.608185420397755 y final 0 8.320932658335721 z final 0 15.595633674548594      xy final -4.804092710198877 xz final 0.0 yz final 0.0 units box
Changing box ...
  triclinic box = (0 0 0) to (9.6081854 8.3209327 15.595634) with tilt (-4.7560518 0 0)
  triclinic box = (0 0 0) to (9.6081854 8.3209327 15.595634) with tilt (-4.7560518 0 0)
  triclinic box = (0 0 0) to (9.6081854 8.3209327 15.595634) with tilt (-4.7560518 0 0)
  triclinic box = (0 0 0) to (9.6081854 8.3209327 15.595634) with tilt (-4.8040927 0 0)
  triclinic box = (0 0 0) to (9.6081854 8.3209327 15.595634) with tilt (-4.8040927 0 0)
  triclinic box = (0 0 0) to (9.6081854 8.3209327 15.595634) with tilt (-4.8040927 0 0)
echo none
run 0
WARNING: No fixes with time integration, atoms won't move (src/src/verlet.cpp:60)
Per MPI rank memory allocation (min/avg/max) = 3.256 | 3.256 | 3.256 Mbytes
    PotEng          Pxx           E_mol          E_coul    
-83.698423     -435.03273      0              0            
Loop time of 1.041e-06 on 1 procs for 0 steps with 54 atoms

192.1% CPU use with 1 MPI tasks x no OpenMP threads

MPI task timing breakdown:
Section |  min time  |  avg time  |  max time  |%varavg| %total
---------------------------------------------------------------
Pair    | 0          | 0          | 0          |   0.0 |  0.00
Neigh   | 0          | 0          | 0          |   0.0 |  0.00
Comm    | 0          | 0          | 0          |   0.0 |  0.00
Output  | 0          | 0          | 0          |   0.0 |  0.00
Modify  | 0          | 0          | 0          |   0.0 |  0.00
Other   |            | 1.041e-06  |            |       |100.00

Nlocal:             54 ave          54 max          54 min
Histogram: 1 0 0 0 0 0 0 0 0 0
Nghost:           1113 ave        1113 max        1113 min
Histogram: 1 0 0 0 0 0 0 0 0 0
Neighs:           3618 ave        3618 max        3618 min
Histogram: 1 0 0 0 0 0 0 0 0 0

Total # of neighbors = 3618
Ave neighs/atom = 67
Neighbor list builds = 0
Dangerous builds = 0
set atom * x 0.0 y 0.0 z 0.0
Setting atom values ...
  54 settings made for x
  54 settings made for y
  54 settings made for z
change_box all     x final 0 9.704267274601731 y final 0 8.320932658335721 z final 0 15.595633674548594      xy final -4.852133637300866 xz final 0.0 yz final 0.0 units box
Changing box ...
  triclinic box = (0 0 0) to (9.7042673 8.3209327 15.595634) with tilt (-4.8040927 0 0)
  triclinic box = (0 0 0) to (9.7042673 8.3209327 15.595634) with tilt (-4.8040927 0 0)
  triclinic box = (0 0 0) to (9.7042673 8.3209327 15.595634) with tilt (-4.8040927 0 0)
  triclinic box = (0 0 0) to (9.7042673 8.3209327 15.595634) with tilt (-4.8521336 0 0)
  triclinic box = (0 0 0) to (9.7042673 8.3209327 15.595634) with tilt (-4.8521336 0 0)
  triclinic box = (0 0 0) to (9.7042673 8.3209327 15.595634) with tilt (-4.8521336 0 0)
echo none
run 0
WARNING: No fixes with time integration, atoms won't move (src/src/verlet.cpp:60)
Per MPI rank memory allocation (min/avg/max) = 3.256 | 3.256 | 3.256 Mbytes
    PotEng          Pxx           E_mol          E_coul    
-83.672752     -6048.1274      0              0            
Loop time of 9.59e-07 on 1 procs for 0 steps with 54 atoms

104.3% CPU use with 1 MPI tasks x no OpenMP threads

MPI task timing breakdown:
Section |  min time  |  avg time  |  max time  |%varavg| %total
---------------------------------------------------------------
Pair    | 0          | 0          | 0          |   0.0 |  0.00
Neigh   | 0          | 0          | 0          |   0.0 |  0.00
Comm    | 0          | 0          | 0          |   0.0 |  0.00
Output  | 0          | 0          | 0          |   0.0 |  0.00
Modify  | 0          | 0          | 0          |   0.0 |  0.00
Other   |            | 9.59e-07   |            |       |100.00

Nlocal:             54 ave          54 max          54 min
Histogram: 1 0 0 0 0 0 0 0 0 0
Nghost:           1113 ave        1113 max        1113 min
Histogram: 1 0 0 0 0 0 0 0 0 0
Neighs:           3618 ave        3618 max        3618 min
Histogram: 1 0 0 0 0 0 0 0 0 0

Total # of neighbors = 3618
Ave neighs/atom = 67
Neighbor list builds = 0
Dangerous builds = 0
set atom * x 0.0 y 0.0 z 0.0
Setting atom values ...
  54 settings made for x
  54 settings made for y
  54 settings made for z
change_box all     x final 0 9.80034912880571 y final 0 8.320932658335721 z final 0 15.595633674548594      xy final -4.900174564402855 xz final 0.0 yz final 0.0 units box
Changing box ...
  triclinic box = (0 0 0) to (9.8003491 8.3209327 15.595634) with tilt (-4.8521336 0 0)
  triclinic box = (0 0 0) to (9.8003491 8.3209327 15.595634) with tilt (-4.8521336 0 0)
  triclinic box = (0 0 0) to (9.8003491 8.3209327 15.595634) with tilt (-4.8521336 0 0)
  triclinic box = (0 0 0) to (9.8003491 8.3209327 15.595634) with tilt (-4.9001746 0 0)
  triclinic box = (0 0 0) to (9.8003491 8.3209327 15.595634) with tilt (-4.9001746 0 0)
  triclinic box = (0 0 0) to (9.8003491 8.3209327 15.595634) with tilt (-4.9001746 0 0)
echo none
run 0
WARNING: No fixes with time integration, atoms won't move (src/src/verlet.cpp:60)
Per MPI rank memory allocation (min/avg/max) = 3.256 | 3.256 | 3.256 Mbytes
    PotEng          Pxx           E_mol          E_coul    
-83.605934     -11025.973      0              0            
Loop time of 9.16e-07 on 1 procs for 0 steps with 54 atoms

0.0% CPU use with 1 MPI tasks x no OpenMP threads

MPI task timing breakdown:
Section |  min time  |  avg time  |  max time  |%varavg| %total
---------------------------------------------------------------
Pair    | 0          | 0          | 0          |   0.0 |  0.00
Neigh   | 0          | 0          | 0          |   0.0 |  0.00
Comm    | 0          | 0          | 0          |   0.0 |  0.00
Output  | 0          | 0          | 0          |   0.0 |  0.00
Modify  | 0          | 0          | 0          |   0.0 |  0.00
Other   |            | 9.16e-07   |            |       |100.00

Nlocal:             54 ave          54 max          54 min
Histogram: 1 0 0 0 0 0 0 0 0 0
Nghost:           1113 ave        1113 max        1113 min
Histogram: 1 0 0 0 0 0 0 0 0 0
Neighs:           3618 ave        3618 max        3618 min
Histogram: 1 0 0 0 0 0 0 0 0 0

Total # of neighbors = 3618
Ave neighs/atom = 67
Neighbor list builds = 0
Dangerous builds = 0
set atom * x 0.0 y 0.0 z 0.0
Setting atom values ...
  54 settings made for x
  54 settings made for y
  54 settings made for z
change_box all     x final 0 9.608185420397755 y final 0 8.320932658335721 z final 0 15.283721001057621      xy final -4.804092710198877 xz final 0.0 yz final 0.0 units box
Changing box ...
WARNING: Triclinic box skew is large (src/src/domain.cpp:224)
  triclinic box = (0 0 0) to (9.6081854 8.3209327 15.595634) with tilt (-4.9001746 0 0)
WARNING: Triclinic box skew is large (src/src/domain.cpp:224)
  triclinic box = (0 0 0) to (9.6081854 8.3209327 15.595634) with tilt (-4.9001746 0 0)
WARNING: Triclinic box skew is large (src/src/domain.cpp:224)
  triclinic box = (0 0 0) to (9.6081854 8.3209327 15.283721) with tilt (-4.9001746 0 0)
  triclinic box = (0 0 0) to (9.6081854 8.3209327 15.283721) with tilt (-4.8040927 0 0)
  triclinic box = (0 0 0) to (9.6081854 8.3209327 15.283721) with tilt (-4.8040927 0 0)
  triclinic box = (0 0 0) to (9.6081854 8.3209327 15.283721) with tilt (-4.8040927 0 0)
echo none
run 0
WARNING: No fixes with time integration, atoms won't move (src/src/verlet.cpp:60)
Per MPI rank memory allocation (min/avg/max) = 3.256 | 3.256 | 3.256 Mbytes
    PotEng          Pxx           E_mol          E_coul    
-83.566581      4026.5786      0              0            
Loop time of 1e-06 on 1 procs for 0 steps with 54 atoms

0.0% CPU use with 1 MPI tasks x no OpenMP threads

MPI task timing breakdown:
Section |  min time  |  avg time  |  max time  |%varavg| %total
---------------------------------------------------------------
Pair    | 0          | 0          | 0          |   0.0 |  0.00
Neigh   | 0          | 0          | 0          |   0.0 |  0.00
Comm    | 0          | 0          | 0          |   0.0 |  0.00
Output  | 0          | 0          | 0          |   0.0 |  0.00
Modify  | 0          | 0          | 0          |   0.0 |  0.00
Other   |            | 1e-06      |            |       |100.00

Nlocal:             54 ave          54 max          54 min
Histogram: 1 0 0 0 0 0 0 0 0 0
Nghost:           1113 ave        1113 max        1113 min
Histogram: 1 0 0 0 0 0 0 0 0 0
Neighs:           3942 ave        3942 max        3942 min
Histogram: 1 0 0 0 0 0 0 0 0 0

Total # of neighbors = 3942
Ave neighs/atom = 73
Neighbor list builds = 0
Dangerous builds = 0
set atom * x 0.0 y 0.0 z 0.0
Setting atom values ...
  54 settings made for x
  54 settings made for y
  54 settings made for z
change_box all     x final 0 9.608185420397755 y final 0 8.320932658335721 z final 0 15.439677337803108      xy final -4.804092710198877 xz final 0.0 yz final 0.0 units box
Changing box ...
  triclinic box = (0 0 0) to (9.6081854 8.3209327 15.283721) with tilt (-4.8040927 0 0)
  triclinic box = (0 0 0) to (9.6081854 8.3209327 15.283721) with tilt (-4.8040927 0 0)
  triclinic box = (0 0 0) to (9.6081854 8.3209327 15.439677) with tilt (-4.8040927 0 0)
  triclinic box = (0 0 0) to (9.6081854 8.3209327 15.439677) with tilt (-4.8040927 0 0)
  triclinic box = (0 0 0) to (9.6081854 8.3209327 15.439677) with tilt (-4.8040927 0 0)
  triclinic box = (0 0 0) to (9.6081854 8.3209327 15.439677) with tilt (-4.8040927 0 0)
echo none
run 0
WARNING: No fixes with time integration, atoms won't move (src/src/verlet.cpp:60)
Per MPI rank memory allocation (min/avg/max) = 3.256 | 3.256 | 3.256 Mbytes
    PotEng          Pxx           E_mol          E_coul    
-83.662638      1678.4004      0              0            
Loop time of 9.16e-07 on 1 procs for 0 steps with 54 atoms

218.3% CPU use with 1 MPI tasks x no OpenMP threads

MPI task timing breakdown:
Section |  min time  |  avg time  |  max time  |%varavg| %total
---------------------------------------------------------------
Pair    | 0          | 0          | 0          |   0.0 |  0.00
Neigh   | 0          | 0          | 0          |   0.0 |  0.00
Comm    | 0          | 0          | 0          |   0.0 |  0.00
Output  | 0          | 0          | 0          |   0.0 |  0.00
Modify  | 0          | 0          | 0          |   0.0 |  0.00
Other   |            | 9.16e-07   |            |       |100.00

Nlocal:             54 ave          54 max          54 min
Histogram: 1 0 0 0 0 0 0 0 0 0
Nghost:           1113 ave        1113 max        1113 min
Histogram: 1 0 0 0 0 0 0 0 0 0
Neighs:           3942 ave        3942 max        3942 min
Histogram: 1 0 0 0 0 0 0 0 0 0

Total # of neighbors = 3942
Ave neighs/atom = 73
Neighbor list builds = 0
Dangerous builds = 0
set atom * x 0.0 y 0.0 z 0.0
Setting atom values ...
  54 settings made for x
  54 settings made for y
  54 settings made for z
change_box all     x final 0 9.608185420397755 y final 0 8.320932658335721 z final 0 15.595633674548594      xy final -4.804092710198877 xz final 0.0 yz final 0.0 units box
Changing box ...
  triclinic box = (0 0 0) to (9.6081854 8.3209327 15.439677) with tilt (-4.8040927 0 0)
  triclinic box = (0 0 0) to (9.6081854 8.3209327 15.439677) with tilt (-4.8040927 0 0)
  triclinic box = (0 0 0) to (9.6081854 8.3209327 15.595634) with tilt (-4.8040927 0 0)
  triclinic box = (0 0 0) to (9.6081854 8.3209327 15.595634) with tilt (-4.8040927 0 0)
  triclinic box = (0 0 0) to (9.6081854 8.3209327 15.595634) with tilt (-4.8040927 0 0)
  triclinic box = (0 0 0) to (9.6081854 8.3209327 15.595634) with tilt (-4.8040927 0 0)
echo none
run 0
WARNING: No fixes with time integration, atoms won't move (src/src/verlet.cpp:60)
Per MPI rank memory allocation (min/avg/max) = 3.256 | 3.256 | 3.256 Mbytes
    PotEng          Pxx           E_mol          E_coul    
-83.698423     -435.03273      0              0            
Loop time of 1e-06 on 1 procs for 0 steps with 54 atoms

200.0% CPU use with 1 MPI tasks x no OpenMP threads

MPI task timing breakdown:
Section |  min time  |  avg time  |  max time  |%varavg| %total
---------------------------------------------------------------
Pair    | 0          | 0          | 0          |   0.0 |  0.00
Neigh   | 0          | 0          | 0          |   0.0 |  0.00
Comm    | 0          | 0          | 0          |   0.0 |  0.00
Output  | 0          | 0          | 0          |   0.0 |  0.00
Modify  | 0          | 0          | 0          |   0.0 |  0.00
Other   |            | 1e-06      |            |       |100.00

Nlocal:             54 ave          54 max          54 min
Histogram: 1 0 0 0 0 0 0 0 0 0
Nghost:           1113 ave        1113 max        1113 min
Histogram: 1 0 0 0 0 0 0 0 0 0
Neighs:           3618 ave        3618 max        3618 min
Histogram: 1 0 0 0 0 0 0 0 0 0

Total # of neighbors = 3618
Ave neighs/atom = 67
Neighbor list builds = 0
Dangerous builds = 0
set atom * x 0.0 y 0.0 z 0.0
Setting atom values ...
  54 settings made for x
  54 settings made for y
  54 settings made for z
change_box all     x final 0 9.608185420397755 y final 0 8.320932658335721 z final 0 15.75159001129408      xy final -4.804092710198877 xz final 0.0 yz final 0.0 units box
Changing box ...
  triclinic box = (0 0 0) to (9.6081854 8.3209327 15.595634) with tilt (-4.8040927 0 0)
  triclinic box = (0 0 0) to (9.6081854 8.3209327 15.595634) with tilt (-4.8040927 0 0)
  triclinic box = (0 0 0) to (9.6081854 8.3209327 15.75159) with tilt (-4.8040927 0 0)
  triclinic box = (0 0 0) to (9.6081854 8.3209327 15.75159) with tilt (-4.8040927 0 0)
  triclinic box = (0 0 0) to (9.6081854 8.3209327 15.75159) with tilt (-4.8040927 0 0)
  triclinic box = (0 0 0) to (9.6081854 8.3209327 15.75159) with tilt (-4.8040927 0 0)
echo none
run 0
WARNING: No fixes with time integration, atoms won't move (src/src/verlet.cpp:60)
Per MPI rank memory allocation (min/avg/max) = 3.256 | 3.256 | 3.256 Mbytes
    PotEng          Pxx           E_mol          E_coul    
-83.680883     -2387.6124      0              0            
Loop time of 8.75e-07 on 1 procs for 0 steps with 54 atoms

228.6% CPU use with 1 MPI tasks x no OpenMP threads

MPI task timing breakdown:
Section |  min time  |  avg time  |  max time  |%varavg| %total
---------------------------------------------------------------
Pair    | 0          | 0          | 0          |   0.0 |  0.00
Neigh   | 0          | 0          | 0          |   0.0 |  0.00
Comm    | 0          | 0          | 0          |   0.0 |  0.00
Output  | 0          | 0          | 0          |   0.0 |  0.00
Modify  | 0          | 0          | 0          |   0.0 |  0.00
Other   |            | 8.75e-07   |            |       |100.00

Nlocal:             54 ave          54 max          54 min
Histogram: 1 0 0 0 0 0 0 0 0 0
Nghost:           1113 ave        1113 max        1113 min
Histogram: 1 0 0 0 0 0 0 0 0 0
Neighs:           3618 ave        3618 max        3618 min
Histogram: 1 0 0 0 0 0 0 0 0 0

Total # of neighbors = 3618
Ave neighs/atom = 67
Neighbor list builds = 0
Dangerous builds = 0
set atom * x 0.0 y 0.0 z 0.0
Setting atom values ...
  54 settings made for x
  54 settings made for y
  54 settings made for z
change_box all     x final 0 9.608185420397755 y final 0 8.320932658335721 z final 0 15.907546348039567      xy final -4.804092710198877 xz final 0.0 yz final 0.0 units box
Changing box ...
  triclinic box = (0 0 0) to (9.6081854 8.3209327 15.75159) with tilt (-4.8040927 0 0)
  triclinic box = (0 0 0) to (9.6081854 8.3209327 15.75159) with tilt (-4.8040927 0 0)
  triclinic box = (0 0 0) to (9.6081854 8.3209327 15.907546) with tilt (-4.8040927 0 0)
  triclinic box = (0 0 0) to (9.6081854 8.3209327 15.907546) with tilt (-4.8040927 0 0)
  triclinic box = (0 0 0) to (9.6081854 8.3209327 15.907546) with tilt (-4.8040927 0 0)
  triclinic box = (0 0 0) to (9.6081854 8.3209327 15.907546) with tilt (-4.8040927 0 0)
echo none
run 0
WARNING: No fixes with time integration, atoms won't move (src/src/verlet.cpp:60)
Per MPI rank memory allocation (min/avg/max) = 3.256 | 3.256 | 3.256 Mbytes
    PotEng          Pxx           E_mol          E_coul    
-83.613311     -4155.51        0              0            
Loop time of 1e-06 on 1 procs for 0 steps with 54 atoms

100.0% CPU use with 1 MPI tasks x no OpenMP threads

MPI task timing breakdown:
Section |  min time  |  avg time  |  max time  |%varavg| %total
---------------------------------------------------------------
Pair    | 0          | 0          | 0          |   0.0 |  0.00
Neigh   | 0          | 0          | 0          |   0.0 |  0.00
Comm    | 0          | 0          | 0          |   0.0 |  0.00
Output  | 0          | 0          | 0          |   0.0 |  0.00
Modify  | 0          | 0          | 0          |   0.0 |  0.00
Other   |            | 1e-06      |            |       |100.00

Nlocal:             54 ave          54 max          54 min
Histogram: 1 0 0 0 0 0 0 0 0 0
Nghost:           1113 ave        1113 max        1113 min
Histogram: 1 0 0 0 0 0 0 0 0 0
Neighs:           3618 ave        3618 max        3618 min
Histogram: 1 0 0 0 0 0 0 0 0 0

Total # of neighbors = 3618
Ave neighs/atom = 67
Neighbor list builds = 0
Dangerous builds = 0
set atom * x 0.0 y 0.0 z 0.0
Setting atom values ...
  54 settings made for x
  54 settings made for y
  54 settings made for z
change_box all     x final 0 9.608185420397755 y final 0 8.320949300184395 z final 0 15.595602483374819      xy final -4.804092710198877 xz final 0.0 yz final 0.031191204966749635 units box
Changing box ...
  triclinic box = (0 0 0) to (9.6081854 8.3209327 15.907546) with tilt (-4.8040927 0 0)
  triclinic box = (0 0 0) to (9.6081854 8.3209493 15.907546) with tilt (-4.8040927 0 0)
  triclinic box = (0 0 0) to (9.6081854 8.3209493 15.595602) with tilt (-4.8040927 0 0)
[...]
  triclinic box = (0 0 0) to (11.013054 12.12212 32.033394) with tilt (-11.013054 0 0)
echo none
run 0
Per MPI rank memory allocation (min/avg/max) = 3.259 | 3.259 | 3.259 Mbytes
    PotEng          Pxx           E_mol          E_coul    
-116.46516     -121.93351      0              0            
Loop time of 1.125e-06 on 1 procs for 0 steps with 80 atoms

177.8% CPU use with 1 MPI tasks x no OpenMP threads

MPI task timing breakdown:
Section |  min time  |  avg time  |  max time  |%varavg| %total
---------------------------------------------------------------
Pair    | 0          | 0          | 0          |   0.0 |  0.00
Neigh   | 0          | 0          | 0          |   0.0 |  0.00
Comm    | 0          | 0          | 0          |   0.0 |  0.00
Output  | 0          | 0          | 0          |   0.0 |  0.00
Modify  | 0          | 0          | 0          |   0.0 |  0.00
Other   |            | 1.125e-06  |            |       |100.00

Nlocal:             80 ave          80 max          80 min
Histogram: 1 0 0 0 0 0 0 0 0 0
Nghost:            576 ave         576 max         576 min
Histogram: 1 0 0 0 0 0 0 0 0 0
Neighs:           4176 ave        4176 max        4176 min
Histogram: 1 0 0 0 0 0 0 0 0 0

Total # of neighbors = 4176
Ave neighs/atom = 52.2
Neighbor list builds = 0
Dangerous builds = 0
set atom * x 0.0 y 0.0 z 0.0
Setting atom values ...
  80 settings made for x
  80 settings made for y
  80 settings made for z
change_box all     x final 0 11.013054281265314 y final 0 12.12212016989279 z final 0 32.033394006641096      xy final -11.013054281265312 xz final 0.0 yz final 0.0 units box
Changing box ...
  triclinic box = (0 0 0) to (11.013054 12.12212 32.033394) with tilt (-11.013054 0 0)
  triclinic box = (0 0 0) to (11.013054 12.12212 32.033394) with tilt (-11.013054 0 0)
  triclinic box = (0 0 0) to (11.013054 12.12212 32.033394) with tilt (-11.013054 0 0)
  triclinic box = (0 0 0) to (11.013054 12.12212 32.033394) with tilt (-11.013054 0 0)
  triclinic box = (0 0 0) to (11.013054 12.12212 32.033394) with tilt (-11.013054 0 0)
  triclinic box = (0 0 0) to (11.013054 12.12212 32.033394) with tilt (-11.013054 0 0)
echo none
run 0
Per MPI rank memory allocation (min/avg/max) = 3.259 | 3.259 | 3.259 Mbytes
    PotEng          Pxx           E_mol          E_coul    
-116.46516     -121.93351      0              0            
Loop time of 1e-06 on 1 procs for 0 steps with 80 atoms

200.0% CPU use with 1 MPI tasks x no OpenMP threads

MPI task timing breakdown:
Section |  min time  |  avg time  |  max time  |%varavg| %total
---------------------------------------------------------------
Pair    | 0          | 0          | 0          |   0.0 |  0.00
Neigh   | 0          | 0          | 0          |   0.0 |  0.00
Comm    | 0          | 0          | 0          |   0.0 |  0.00
Output  | 0          | 0          | 0          |   0.0 |  0.00
Modify  | 0          | 0          | 0          |   0.0 |  0.00
Other   |            | 1e-06      |            |       |100.00

Nlocal:             80 ave          80 max          80 min
Histogram: 1 0 0 0 0 0 0 0 0 0
Nghost:            576 ave         576 max         576 min
Histogram: 1 0 0 0 0 0 0 0 0 0
Neighs:           4176 ave        4176 max        4176 min
Histogram: 1 0 0 0 0 0 0 0 0 0

Total # of neighbors = 4176
Ave neighs/atom = 52.2
Neighbor list builds = 0
Dangerous builds = 0
set atom * x 0.0 y 0.0 z 0.0
Setting atom values ...
  80 settings made for x
  80 settings made for y
  80 settings made for z
change_box all     x final 0 11.012923010395005 y final 0 12.1219756794341 z final 0 32.03301218236213      xy final -11.012923010395003 xz final 0.0 yz final 0.0 units box
Changing box ...
  triclinic box = (0 0 0) to (11.012923 12.12212 32.033394) with tilt (-11.013054 0 0)
  triclinic box = (0 0 0) to (11.012923 12.121976 32.033394) with tilt (-11.013054 0 0)
  triclinic box = (0 0 0) to (11.012923 12.121976 32.033012) with tilt (-11.013054 0 0)
  triclinic box = (0 0 0) to (11.012923 12.121976 32.033012) with tilt (-11.012923 0 0)
  triclinic box = (0 0 0) to (11.012923 12.121976 32.033012) with tilt (-11.012923 0 0)
  triclinic box = (0 0 0) to (11.012923 12.121976 32.033012) with tilt (-11.012923 0 0)
echo none
run 0
Per MPI rank memory allocation (min/avg/max) = 3.259 | 3.259 | 3.259 Mbytes
    PotEng          Pxx           E_mol          E_coul    
-116.46521     -124.24254      0              0            
Loop time of 1.333e-06 on 1 procs for 0 steps with 80 atoms

75.0% CPU use with 1 MPI tasks x no OpenMP threads

MPI task timing breakdown:
Section |  min time  |  avg time  |  max time  |%varavg| %total
---------------------------------------------------------------
Pair    | 0          | 0          | 0          |   0.0 |  0.00
Neigh   | 0          | 0          | 0          |   0.0 |  0.00
Comm    | 0          | 0          | 0          |   0.0 |  0.00
Output  | 0          | 0          | 0          |   0.0 |  0.00
Modify  | 0          | 0          | 0          |   0.0 |  0.00
Other   |            | 1.333e-06  |            |       |100.00

Nlocal:             80 ave          80 max          80 min
Histogram: 1 0 0 0 0 0 0 0 0 0
Nghost:            576 ave         576 max         576 min
Histogram: 1 0 0 0 0 0 0 0 0 0
Neighs:           4176 ave        4176 max        4176 min
Histogram: 1 0 0 0 0 0 0 0 0 0

Total # of neighbors = 4176
Ave neighs/atom = 52.2
Neighbor list builds = 0
Dangerous builds = 0
set atom * x 0.0 y 0.0 z 0.0
Setting atom values ...
  80 settings made for x
  80 settings made for y
  80 settings made for z
change_box all     x final 0 11.012588403257535 y final 0 12.121607375798565 z final 0 32.032038918996825      xy final -11.012588403257533 xz final 0.0 yz final 0.0 units box
Changing box ...
  triclinic box = (0 0 0) to (11.012588 12.121976 32.033012) with tilt (-11.012923 0 0)
  triclinic box = (0 0 0) to (11.012588 12.121607 32.033012) with tilt (-11.012923 0 0)
  triclinic box = (0 0 0) to (11.012588 12.121607 32.032039) with tilt (-11.012923 0 0)
  triclinic box = (0 0 0) to (11.012588 12.121607 32.032039) with tilt (-11.012588 0 0)
  triclinic box = (0 0 0) to (11.012588 12.121607 32.032039) with tilt (-11.012588 0 0)
  triclinic box = (0 0 0) to (11.012588 12.121607 32.032039) with tilt (-11.012588 0 0)
echo none
run 0
Per MPI rank memory allocation (min/avg/max) = 3.259 | 3.259 | 3.259 Mbytes
    PotEng          Pxx           E_mol          E_coul    
-116.46527     -130.02329      0              0            
Loop time of 1.042e-06 on 1 procs for 0 steps with 80 atoms

287.9% CPU use with 1 MPI tasks x no OpenMP threads

MPI task timing breakdown:
Section |  min time  |  avg time  |  max time  |%varavg| %total
---------------------------------------------------------------
Pair    | 0          | 0          | 0          |   0.0 |  0.00
Neigh   | 0          | 0          | 0          |   0.0 |  0.00
Comm    | 0          | 0          | 0          |   0.0 |  0.00
Output  | 0          | 0          | 0          |   0.0 |  0.00
Modify  | 0          | 0          | 0          |   0.0 |  0.00
Other   |            | 1.042e-06  |            |       |100.00

Nlocal:             80 ave          80 max          80 min
Histogram: 1 0 0 0 0 0 0 0 0 0
Nghost:            576 ave         576 max         576 min
Histogram: 1 0 0 0 0 0 0 0 0 0
Neighs:           4176 ave        4176 max        4176 min
Histogram: 1 0 0 0 0 0 0 0 0 0

Total # of neighbors = 4176
Ave neighs/atom = 52.2
Neighbor list builds = 0
Dangerous builds = 0
set atom * x 0.0 y 0.0 z 0.0
Setting atom values ...
  80 settings made for x
  80 settings made for y
  80 settings made for z
change_box all     x final 0 11.012588403257535 y final 0 12.121607375798565 z final 0 32.032038918996825      xy final -11.012588403257533 xz final 0.0 yz final 0.0 units box
Changing box ...
  triclinic box = (0 0 0) to (11.012588 12.121607 32.032039) with tilt (-11.012588 0 0)
  triclinic box = (0 0 0) to (11.012588 12.121607 32.032039) with tilt (-11.012588 0 0)
  triclinic box = (0 0 0) to (11.012588 12.121607 32.032039) with tilt (-11.012588 0 0)
  triclinic box = (0 0 0) to (11.012588 12.121607 32.032039) with tilt (-11.012588 0 0)
  triclinic box = (0 0 0) to (11.012588 12.121607 32.032039) with tilt (-11.012588 0 0)
  triclinic box = (0 0 0) to (11.012588 12.121607 32.032039) with tilt (-11.012588 0 0)
echo none
run 0
Per MPI rank memory allocation (min/avg/max) = 3.259 | 3.259 | 3.259 Mbytes
    PotEng          Pxx           E_mol          E_coul    
-116.46527     -130.02329      0              0            
Loop time of 1.208e-06 on 1 procs for 0 steps with 80 atoms

165.6% CPU use with 1 MPI tasks x no OpenMP threads

MPI task timing breakdown:
Section |  min time  |  avg time  |  max time  |%varavg| %total
---------------------------------------------------------------
Pair    | 0          | 0          | 0          |   0.0 |  0.00
Neigh   | 0          | 0          | 0          |   0.0 |  0.00
Comm    | 0          | 0          | 0          |   0.0 |  0.00
Output  | 0          | 0          | 0          |   0.0 |  0.00
Modify  | 0          | 0          | 0          |   0.0 |  0.00
Other   |            | 1.208e-06  |            |       |100.00

Nlocal:             80 ave          80 max          80 min
Histogram: 1 0 0 0 0 0 0 0 0 0
Nghost:            576 ave         576 max         576 min
Histogram: 1 0 0 0 0 0 0 0 0 0
Neighs:           4176 ave        4176 max        4176 min
Histogram: 1 0 0 0 0 0 0 0 0 0

Total # of neighbors = 4176
Ave neighs/atom = 52.2
Neighbor list builds = 0
Dangerous builds = 0
set atom * x 0.0 y 0.0 z 0.0
Setting atom values ...
  80 settings made for x
  80 settings made for y
  80 settings made for z
change_box all     x final 0 11.012264896295953 y final 0 12.12125129017836 z final 0 32.031097942433966      xy final -11.012264896295951 xz final 0.0 yz final 0.0 units box
Changing box ...
  triclinic box = (0 0 0) to (11.012265 12.121607 32.032039) with tilt (-11.012588 0 0)
  triclinic box = (0 0 0) to (11.012265 12.121251 32.032039) with tilt (-11.012588 0 0)
  triclinic box = (0 0 0) to (11.012265 12.121251 32.031098) with tilt (-11.012588 0 0)
  triclinic box = (0 0 0) to (11.012265 12.121251 32.031098) with tilt (-11.012265 0 0)
  triclinic box = (0 0 0) to (11.012265 12.121251 32.031098) with tilt (-11.012265 0 0)
  triclinic box = (0 0 0) to (11.012265 12.121251 32.031098) with tilt (-11.012265 0 0)
echo none
run 0
Per MPI rank memory allocation (min/avg/max) = 3.259 | 3.259 | 3.259 Mbytes
    PotEng          Pxx           E_mol          E_coul    
-116.46529     -108.57952      0              0            
Loop time of 1.083e-06 on 1 procs for 0 steps with 80 atoms

92.3% CPU use with 1 MPI tasks x no OpenMP threads

MPI task timing breakdown:
Section |  min time  |  avg time  |  max time  |%varavg| %total
---------------------------------------------------------------
Pair    | 0          | 0          | 0          |   0.0 |  0.00
Neigh   | 0          | 0          | 0          |   0.0 |  0.00
Comm    | 0          | 0          | 0          |   0.0 |  0.00
Output  | 0          | 0          | 0          |   0.0 |  0.00
Modify  | 0          | 0          | 0          |   0.0 |  0.00
Other   |            | 1.083e-06  |            |       |100.00

Nlocal:             80 ave          80 max          80 min
Histogram: 1 0 0 0 0 0 0 0 0 0
Nghost:            576 ave         576 max         576 min
Histogram: 1 0 0 0 0 0 0 0 0 0
Neighs:           4176 ave        4176 max        4176 min
Histogram: 1 0 0 0 0 0 0 0 0 0

Total # of neighbors = 4176
Ave neighs/atom = 52.2
Neighbor list builds = 0
Dangerous builds = 0
set atom * x 0.0 y 0.0 z 0.0
Setting atom values ...
  80 settings made for x
  80 settings made for y
  80 settings made for z
change_box all     x final 0 11.011931456097372 y final 0 12.1208842709979 z final 0 32.03012807331446      xy final -11.01193145609737 xz final 0.0 yz final 0.0 units box
Changing box ...
  triclinic box = (0 0 0) to (11.011931 12.121251 32.031098) with tilt (-11.012265 0 0)
  triclinic box = (0 0 0) to (11.011931 12.120884 32.031098) with tilt (-11.012265 0 0)
  triclinic box = (0 0 0) to (11.011931 12.120884 32.030128) with tilt (-11.012265 0 0)
  triclinic box = (0 0 0) to (11.011931 12.120884 32.030128) with tilt (-11.011931 0 0)
  triclinic box = (0 0 0) to (11.011931 12.120884 32.030128) with tilt (-11.011931 0 0)
  triclinic box = (0 0 0) to (11.011931 12.120884 32.030128) with tilt (-11.011931 0 0)
echo none
run 0
Per MPI rank memory allocation (min/avg/max) = 3.259 | 3.259 | 3.259 Mbytes
    PotEng          Pxx           E_mol          E_coul    
-116.4653      -86.426931      0              0            
Loop time of 1.542e-06 on 1 procs for 0 steps with 80 atoms

64.9% CPU use with 1 MPI tasks x no OpenMP threads

MPI task timing breakdown:
Section |  min time  |  avg time  |  max time  |%varavg| %total
---------------------------------------------------------------
Pair    | 0          | 0          | 0          |   0.0 |  0.00
Neigh   | 0          | 0          | 0          |   0.0 |  0.00
Comm    | 0          | 0          | 0          |   0.0 |  0.00
Output  | 0          | 0          | 0          |   0.0 |  0.00
Modify  | 0          | 0          | 0          |   0.0 |  0.00
Other   |            | 1.542e-06  |            |       |100.00

Nlocal:             80 ave          80 max          80 min
Histogram: 1 0 0 0 0 0 0 0 0 0
Nghost:            576 ave         576 max         576 min
Histogram: 1 0 0 0 0 0 0 0 0 0
Neighs:           4176 ave        4176 max        4176 min
Histogram: 1 0 0 0 0 0 0 0 0 0

Total # of neighbors = 4176
Ave neighs/atom = 52.2
Neighbor list builds = 0
Dangerous builds = 0
set atom * x 0.0 y 0.0 z 0.0
Setting atom values ...
  80 settings made for x
  80 settings made for y
  80 settings made for z
change_box all     x final 0 11.011931456097372 y final 0 12.1208842709979 z final 0 32.03012807331446      xy final -11.01193145609737 xz final 0.0 yz final 0.0 units box
Changing box ...
  triclinic box = (0 0 0) to (11.011931 12.120884 32.030128) with tilt (-11.011931 0 0)
  triclinic box = (0 0 0) to (11.011931 12.120884 32.030128) with tilt (-11.011931 0 0)
  triclinic box = (0 0 0) to (11.011931 12.120884 32.030128) with tilt (-11.011931 0 0)
  triclinic box = (0 0 0) to (11.011931 12.120884 32.030128) with tilt (-11.011931 0 0)
  triclinic box = (0 0 0) to (11.011931 12.120884 32.030128) with tilt (-11.011931 0 0)
  triclinic box = (0 0 0) to (11.011931 12.120884 32.030128) with tilt (-11.011931 0 0)
echo none
run 0
Per MPI rank memory allocation (min/avg/max) = 3.259 | 3.259 | 3.259 Mbytes
    PotEng          Pxx           E_mol          E_coul    
-116.4653      -86.426931      0              0            
Loop time of 6.67e-07 on 1 procs for 0 steps with 80 atoms

149.9% CPU use with 1 MPI tasks x no OpenMP threads

MPI task timing breakdown:
Section |  min time  |  avg time  |  max time  |%varavg| %total
---------------------------------------------------------------
Pair    | 0          | 0          | 0          |   0.0 |  0.00
Neigh   | 0          | 0          | 0          |   0.0 |  0.00
Comm    | 0          | 0          | 0          |   0.0 |  0.00
Output  | 0          | 0          | 0          |   0.0 |  0.00
Modify  | 0          | 0          | 0          |   0.0 |  0.00
Other   |            | 6.67e-07   |            |       |100.00

Nlocal:             80 ave          80 max          80 min
Histogram: 1 0 0 0 0 0 0 0 0 0
Nghost:            576 ave         576 max         576 min
Histogram: 1 0 0 0 0 0 0 0 0 0
Neighs:           4176 ave        4176 max        4176 min
Histogram: 1 0 0 0 0 0 0 0 0 0

Total # of neighbors = 4176
Ave neighs/atom = 52.2
Neighbor list builds = 0
Dangerous builds = 0
set atom * x 0.0 y 0.0 z 0.0
Setting atom values ...
  80 settings made for x
  80 settings made for y
  80 settings made for z
change_box all     x final 0 11.011892918118752 y final 0 12.12084185206524 z final 0 32.03001597886528      xy final -11.01189291811875 xz final 0.0 yz final 0.0 units box
Changing box ...
  triclinic box = (0 0 0) to (11.011893 12.120884 32.030128) with tilt (-11.011931 0 0)
  triclinic box = (0 0 0) to (11.011893 12.120842 32.030128) with tilt (-11.011931 0 0)
  triclinic box = (0 0 0) to (11.011893 12.120842 32.030016) with tilt (-11.011931 0 0)
  triclinic box = (0 0 0) to (11.011893 12.120842 32.030016) with tilt (-11.011893 0 0)
  triclinic box = (0 0 0) to (11.011893 12.120842 32.030016) with tilt (-11.011893 0 0)
  triclinic box = (0 0 0) to (11.011893 12.120842 32.030016) with tilt (-11.011893 0 0)
echo none
run 0
Per MPI rank memory allocation (min/avg/max) = 3.259 | 3.259 | 3.259 Mbytes
    PotEng          Pxx           E_mol          E_coul    
-116.46532     -84.69985       0              0            
Loop time of 9.59e-07 on 1 procs for 0 steps with 80 atoms

208.6% CPU use with 1 MPI tasks x no OpenMP threads

MPI task timing breakdown:
Section |  min time  |  avg time  |  max time  |%varavg| %total
---------------------------------------------------------------
Pair    | 0          | 0          | 0          |   0.0 |  0.00
Neigh   | 0          | 0          | 0          |   0.0 |  0.00
Comm    | 0          | 0          | 0          |   0.0 |  0.00
Output  | 0          | 0          | 0          |   0.0 |  0.00
Modify  | 0          | 0          | 0          |   0.0 |  0.00
Other   |            | 9.59e-07   |            |       |100.00

Nlocal:             80 ave          80 max          80 min
Histogram: 1 0 0 0 0 0 0 0 0 0
Nghost:            576 ave         576 max         576 min
Histogram: 1 0 0 0 0 0 0 0 0 0
Neighs:           4176 ave        4176 max        4176 min
Histogram: 1 0 0 0 0 0 0 0 0 0

Total # of neighbors = 4176
Ave neighs/atom = 52.2
Neighbor list builds = 0
Dangerous builds = 0
set atom * x 0.0 y 0.0 z 0.0
Setting atom values ...
  80 settings made for x
  80 settings made for y
  80 settings made for z
change_box all     x final 0 11.01173876755296 y final 0 12.120672177819106 z final 0 32.029567604991485      xy final -11.011738767552957 xz final 0.0 yz final 0.0 units box
Changing box ...
  triclinic box = (0 0 0) to (11.011739 12.120842 32.030016) with tilt (-11.011893 0 0)
  triclinic box = (0 0 0) to (11.011739 12.120672 32.030016) with tilt (-11.011893 0 0)
  triclinic box = (0 0 0) to (11.011739 12.120672 32.029568) with tilt (-11.011893 0 0)
  triclinic box = (0 0 0) to (11.011739 12.120672 32.029568) with tilt (-11.011739 0 0)
  triclinic box = (0 0 0) to (11.011739 12.120672 32.029568) with tilt (-11.011739 0 0)
  triclinic box = (0 0 0) to (11.011739 12.120672 32.029568) with tilt (-11.011739 0 0)
echo none
run 0
Per MPI rank memory allocation (min/avg/max) = 3.259 | 3.259 | 3.259 Mbytes
    PotEng          Pxx           E_mol          E_coul    
-116.46537     -77.767153      0              0            
Loop time of 7.5e-07 on 1 procs for 0 steps with 80 atoms

133.3% CPU use with 1 MPI tasks x no OpenMP threads

MPI task timing breakdown:
Section |  min time  |  avg time  |  max time  |%varavg| %total
---------------------------------------------------------------
Pair    | 0          | 0          | 0          |   0.0 |  0.00
Neigh   | 0          | 0          | 0          |   0.0 |  0.00
Comm    | 0          | 0          | 0          |   0.0 |  0.00
Output  | 0          | 0          | 0          |   0.0 |  0.00
Modify  | 0          | 0          | 0          |   0.0 |  0.00
Other   |            | 7.5e-07    |            |       |100.00

Nlocal:             80 ave          80 max          80 min
Histogram: 1 0 0 0 0 0 0 0 0 0
Nghost:            576 ave         576 max         576 min
Histogram: 1 0 0 0 0 0 0 0 0 0
Neighs:           4176 ave        4176 max        4176 min
Histogram: 1 0 0 0 0 0 0 0 0 0

Total # of neighbors = 4176
Ave neighs/atom = 52.2
Neighbor list builds = 0
Dangerous builds = 0
Total wall time: 0:00:06
