4
Lattice="3.7314 0.0 0.0 0.0 3.7314 0.0 0.0 0.0 3.7314" Properties=species:S:1:pos:R:3:forces:R:3 virial="22.956747522545843 -0.0 0.0 -0.0 22.956747522545843 0.0 0.0 0.0 22.956747522545843" energy=-7.85178492 pbc="T T T"
Ag       0.00000000       0.00000000       0.00000000      -0.00000000      -0.00000000      -0.00000000
Ag       0.00000000       1.86570000       1.86570000       0.00000000       0.00000000       0.00000000
Ag       1.86570000       0.00000000       1.86570000       0.00000000      -0.00000000       0.00000000
Ag       1.86570000       1.86570000       0.00000000      -0.00000000       0.00000000      -0.00000000
4
Lattice="3.81432 0.0 0.0 0.0 3.81432 0.0 0.0 0.0 3.81432" Properties=species:S:1:pos:R:3:forces:R:3 virial="16.119127913339405 0.0 -0.0 0.0 16.119127913339405 -0.0 -0.0 -0.0 16.119127913339405" energy=-9.13881885 pbc="T T T"
Ag       0.00000000       0.00000000       0.00000000      -0.00000000      -0.00000000       0.00000000
Ag       0.00000000       1.90716000       1.90716000       0.00000000       0.00000000      -0.00000000
Ag       1.90716000       0.00000000       1.90716000      -0.00000000      -0.00000000      -0.00000000
Ag       1.90716000       1.90716000       0.00000000       0.00000000       0.00000000      -0.00000000
4
Lattice="3.89724 0.0 0.0 0.0 3.89724 0.0 0.0 0.0 3.89724" Properties=species:S:1:pos:R:3:forces:R:3 virial="10.640476628492609 0.0 0.0 0.0 10.640476628492609 0.0 0.0 0.0 10.640476628492609" energy=-9.99793964 pbc="T T T"
Ag       0.00000000       0.00000000       0.00000000      -0.00000000      -0.00000000       0.00000000
Ag       0.00000000       1.94862000       1.94862000       0.00000000      -0.00000000      -0.00000000
Ag       1.94862000       0.00000000       1.94862000      -0.00000000       0.00000000       0.00000000
Ag       1.94862000       1.94862000       0.00000000       0.00000000      -0.00000000      -0.00000000
4
Lattice="3.98016 0.0 0.0 0.0 3.98016 0.0 0.0 0.0 3.98016" Properties=species:S:1:pos:R:3:forces:R:3 virial="6.264693957171897 0.0 -0.0 0.0 6.264693957171897 0.0 -0.0 0.0 6.264693957171897" energy=-10.51909404 pbc="T T T"
Ag       0.00000000       0.00000000       0.00000000      -0.00000000      -0.00000000      -0.00000000
Ag       0.00000000       1.99008000       1.99008000      -0.00000000       0.00000000       0.00000000
Ag       1.99008000       0.00000000       1.99008000       0.00000000      -0.00000000       0.00000000
Ag       1.99008000       1.99008000       0.00000000       0.00000000       0.00000000       0.00000000
4
Lattice="4.06308 0.0 0.0 0.0 4.06308 0.0 0.0 0.0 4.06308" Properties=species:S:1:pos:R:3:forces:R:3 virial="2.752070155197641 -0.0 -0.0 -0.0 2.752070155197641 -0.0 -0.0 -0.0 2.752070155197641" energy=-10.79939211 pbc="T T T"
Ag       0.00000000       0.00000000       0.00000000      -0.00000000       0.00000000      -0.00000000
Ag       0.00000000       2.03154000       2.03154000      -0.00000000      -0.00000000       0.00000000
Ag       2.03154000       0.00000000       2.03154000       0.00000000       0.00000000      -0.00000000
Ag       2.03154000       2.03154000       0.00000000       0.00000000       0.00000000      -0.00000000
4
Lattice="4.146 0.0 0.0 0.0 4.146 0.0 0.0 0.0 4.146" Properties=species:S:1:pos:R:3:forces:R:3 virial="0.0318339930149882 -0.0 -0.0 -0.0 0.0318339930149882 0.0 -0.0 0.0 0.0318339930149882" energy=-10.88154408 pbc="T T T"
Ag       0.00000000       0.00000000       0.00000000       0.00000000       0.00000000       0.00000000
Ag       0.00000000       2.07300000       2.07300000      -0.00000000       0.00000000      -0.00000000
Ag       2.07300000       0.00000000       2.07300000       0.00000000      -0.00000000       0.00000000
Ag       2.07300000       2.07300000       0.00000000      -0.00000000      -0.00000000       0.00000000
4
Lattice="4.22892 0.0 0.0 0.0 4.22892 0.0 0.0 0.0 4.22892" Properties=species:S:1:pos:R:3:forces:R:3 virial="-2.1907912025318144 0.0 0.0 0.0 -2.1907912025318144 0.0 0.0 0.0 -2.1907912025318144" energy=-10.81734871 pbc="T T T"
Ag       0.00000000       0.00000000       0.00000000       0.00000000       0.00000000      -0.00000000
Ag       0.00000000       2.11446000       2.11446000      -0.00000000       0.00000000      -0.00000000
Ag       2.11446000       0.00000000       2.11446000       0.00000000       0.00000000       0.00000000
Ag       2.11446000       2.11446000       0.00000000      -0.00000000      -0.00000000       0.00000000
4
Lattice="4.31184 0.0 0.0 0.0 4.31184 0.0 0.0 0.0 4.31184" Properties=species:S:1:pos:R:3:forces:R:3 virial="-3.7962877555523944 0.0 -0.0 0.0 -3.7962877555523944 -0.0 -0.0 -0.0 -3.7962877555523944" energy=-10.64348988 pbc="T T T"
Ag       0.00000000       0.00000000       0.00000000      -0.00000000       0.00000000      -0.00000000
Ag       0.00000000       2.15592000       2.15592000       0.00000000       0.00000000       0.00000000
Ag       2.15592000       0.00000000       2.15592000      -0.00000000      -0.00000000      -0.00000000
Ag       2.15592000       2.15592000       0.00000000       0.00000000      -0.00000000       0.00000000
4
Lattice="4.39476 0.0 0.0 0.0 4.39476 0.0 0.0 0.0 4.39476" Properties=species:S:1:pos:R:3:forces:R:3 virial="-5.061655287139874 0.0 -0.0 0.0 -5.061655287139874 -0.0 -0.0 -0.0 -5.061655287139874" energy=-10.38830752 pbc="T T T"
Ag       0.00000000       0.00000000       0.00000000       0.00000000      -0.00000000      -0.00000000
Ag       0.00000000       2.19738000       2.19738000       0.00000000       0.00000000      -0.00000000
Ag       2.19738000       0.00000000       2.19738000      -0.00000000       0.00000000       0.00000000
Ag       2.19738000       2.19738000       0.00000000      -0.00000000      -0.00000000       0.00000000
4
Lattice="4.47768 0.0 0.0 0.0 4.47768 0.0 0.0 0.0 4.47768" Properties=species:S:1:pos:R:3:forces:R:3 virial="-6.017973079180763 0.0 -0.0 0.0 -6.017973079180763 -0.0 -0.0 -0.0 -6.017973079180763" energy=-10.07786237 pbc="T T T"
Ag       0.00000000       0.00000000       0.00000000       0.00000000      -0.00000000      -0.00000000
Ag       0.00000000       2.23884000       2.23884000      -0.00000000       0.00000000       0.00000000
Ag       2.23884000       0.00000000       2.23884000       0.00000000       0.00000000       0.00000000
Ag       2.23884000       2.23884000       0.00000000      -0.00000000      -0.00000000      -0.00000000
4
Lattice="4.5606 0.0 0.0 0.0 4.5606 0.0 0.0 0.0 4.5606" Properties=species:S:1:pos:R:3:forces:R:3 virial="-6.699052964945351 -0.0 0.0 -0.0 -6.699052964945351 -0.0 0.0 -0.0 -6.699052964945351" energy=-9.72873751 pbc="T T T"
Ag       0.00000000       0.00000000       0.00000000       0.00000000       0.00000000      -0.00000000
Ag       0.00000000       2.28030000       2.28030000       0.00000000      -0.00000000       0.00000000
Ag       2.28030000       0.00000000       2.28030000      -0.00000000      -0.00000000       0.00000000
Ag       2.28030000       2.28030000       0.00000000       0.00000000       0.00000000      -0.00000000
4
Lattice="3.64065973 0.0 0.0 0.0 3.64065973 0.0 0.0 0.0 3.64065973" Properties=species:S:1:pos:R:3:forces:R:3 virial="14.690993386699025 0.0 -0.0 0.0 14.690993386699025 0.0 -0.0 0.0 14.690993386699025" energy=-12.92026845 pbc="T T T"
Al       0.00000000       0.00000000       0.00000000       0.00000000      -0.00000000       0.00000000
Al       0.00000000       1.82032986       1.82032986      -0.00000000       0.00000000      -0.00000000
Al       1.82032986       0.00000000       1.82032986      -0.00000000      -0.00000000       0.00000000
Al       1.82032986       1.82032986       0.00000000       0.00000000       0.00000000      -0.00000000
4
Lattice="3.72156328 0.0 0.0 0.0 3.72156328 0.0 0.0 0.0 3.72156328" Properties=species:S:1:pos:R:3:forces:R:3 virial="10.756783110919832 0.0 -0.0 0.0 10.756783110919832 0.0 -0.0 0.0 10.756783110919832" energy=-13.75638078 pbc="T T T"
Al       0.00000000       0.00000000       0.00000000       0.00000000       0.00000000       0.00000000
Al       0.00000000       1.86078164       1.86078164       0.00000000      -0.00000000      -0.00000000
Al       1.86078164       0.00000000       1.86078164       0.00000000      -0.00000000       0.00000000
Al       1.86078164       1.86078164       0.00000000      -0.00000000       0.00000000      -0.00000000
4
Lattice="3.80246683 0.0 0.0 0.0 3.80246683 0.0 0.0 0.0 3.80246683" Properties=species:S:1:pos:R:3:forces:R:3 virial="7.2950957379737345 0.0 -0.0 0.0 7.2950957379737345 0.0 -0.0 0.0 7.2950957379737345" energy=-14.33596176 pbc="T T T"
Al       0.00000000       0.00000000       0.00000000       0.00000000       0.00000000       0.00000000
Al       0.00000000       1.90123342       1.90123342       0.00000000       0.00000000      -0.00000000
Al       1.90123342       0.00000000       1.90123342      -0.00000000      -0.00000000      -0.00000000
Al       1.90123342       1.90123342       0.00000000      -0.00000000      -0.00000000       0.00000000
4
Lattice="3.88337038 0.0 0.0 0.0 3.88337038 0.0 0.0 0.0 3.88337038" Properties=species:S:1:pos:R:3:forces:R:3 virial="4.3955270907427995 -0.0 -0.0 -0.0 4.3955270907427995 -0.0 -0.0 -0.0 4.3955270907427995" energy=-14.70329 pbc="T T T"
Al       0.00000000       0.00000000       0.00000000       0.00000000       0.00000000      -0.00000000
Al       0.00000000       1.94168519       1.94168519       0.00000000       0.00000000       0.00000000
Al       1.94168519       0.00000000       1.94168519      -0.00000000      -0.00000000       0.00000000
Al       1.94168519       1.94168519       0.00000000      -0.00000000      -0.00000000      -0.00000000
4
Lattice="3.96427393 0.0 0.0 0.0 3.96427393 0.0 0.0 0.0 3.96427393" Properties=species:S:1:pos:R:3:forces:R:3 virial="2.074146424259973 0.0 -0.0 0.0 2.074146424259973 -0.0 -0.0 -0.0 2.074146424259973" energy=-14.937312 pbc="T T T"
Al       0.00000000       0.00000000       0.00000000       0.00000000      -0.00000000       0.00000000
Al       0.00000000       1.98213697       1.98213697      -0.00000000      -0.00000000      -0.00000000
Al       1.98213697       0.00000000       1.98213697      -0.00000000       0.00000000      -0.00000000
Al       1.98213697       1.98213697       0.00000000       0.00000000       0.00000000       0.00000000
4
Lattice="4.04517748 0.0 0.0 0.0 4.04517748 0.0 0.0 0.0 4.04517748" Properties=species:S:1:pos:R:3:forces:R:3 virial="-0.005348576228102333 -0.0 -0.0 -0.0 -0.005348576228102333 -0.0 -0.0 -0.0 -0.005348576228102333" energy=-14.99914705 pbc="T T T"
Al       0.00000000       0.00000000       0.00000000      -0.00000000       0.00000000       0.00000000
Al       0.00000000       2.02258874       2.02258874      -0.00000000      -0.00000000       0.00000000
Al       2.02258874       0.00000000       2.02258874       0.00000000      -0.00000000      -0.00000000
Al       2.02258874       2.02258874       0.00000000       0.00000000      -0.00000000       0.00000000
4
Lattice="4.12608103 0.0 0.0 0.0 4.12608103 0.0 0.0 0.0 4.12608103" Properties=species:S:1:pos:R:3:forces:R:3 virial="-1.7668342692401662 -0.0 0.0 -0.0 -1.7668342692401662 -0.0 0.0 -0.0 -1.7668342692401662" energy=-14.94266114 pbc="T T T"
Al       0.00000000       0.00000000       0.00000000      -0.00000000       0.00000000       0.00000000
Al       0.00000000       2.06304051       2.06304051      -0.00000000      -0.00000000      -0.00000000
Al       2.06304051       0.00000000       2.06304051       0.00000000      -0.00000000       0.00000000
Al       2.06304051       2.06304051       0.00000000      -0.00000000      -0.00000000      -0.00000000
4
Lattice="4.20698458 0.0 0.0 0.0 4.20698458 0.0 0.0 0.0 4.20698458" Properties=species:S:1:pos:R:3:forces:R:3 virial="-3.219085779158545 0.0 0.0 0.0 -3.219085779158545 0.0 0.0 0.0 -3.219085779158545" energy=-14.79714855 pbc="T T T"
Al       0.00000000       0.00000000       0.00000000      -0.00000000       0.00000000       0.00000000
Al       0.00000000       2.10349229       2.10349229      -0.00000000      -0.00000000       0.00000000
Al       2.10349229       0.00000000       2.10349229       0.00000000       0.00000000      -0.00000000
Al       2.10349229       2.10349229       0.00000000       0.00000000      -0.00000000      -0.00000000
4
Lattice="4.28788813 0.0 0.0 0.0 4.28788813 0.0 0.0 0.0 4.28788813" Properties=species:S:1:pos:R:3:forces:R:3 virial="-4.5378824313377635 -0.0 -0.0 -0.0 -4.5378824313377635 -0.0 -0.0 -0.0 -4.5378824313377635" energy=-14.57414956 pbc="T T T"
Al       0.00000000       0.00000000       0.00000000      -0.00000000       0.00000000      -0.00000000
Al       0.00000000       2.14394406       2.14394406      -0.00000000       0.00000000       0.00000000
Al       2.14394406       0.00000000       2.14394406       0.00000000      -0.00000000       0.00000000
Al       2.14394406       2.14394406       0.00000000       0.00000000      -0.00000000      -0.00000000
4
Lattice="4.36879168 0.0 0.0 0.0 4.36879168 0.0 0.0 0.0 4.36879168" Properties=species:S:1:pos:R:3:forces:R:3 virial="-5.5002425278274965 -0.0 0.0 -0.0 -5.5002425278274965 0.0 0.0 0.0 -5.5002425278274965" energy=-14.29040372 pbc="T T T"
Al       0.00000000       0.00000000       0.00000000       0.00000000      -0.00000000       0.00000000
Al       0.00000000       2.18439584       2.18439584       0.00000000      -0.00000000      -0.00000000
Al       2.18439584       0.00000000       2.18439584      -0.00000000       0.00000000      -0.00000000
Al       2.18439584       2.18439584       0.00000000       0.00000000       0.00000000       0.00000000
4
Lattice="4.44969523 0.0 0.0 0.0 4.44969523 0.0 0.0 0.0 4.44969523" Properties=species:S:1:pos:R:3:forces:R:3 virial="-6.344831607004762 0.0 -0.0 0.0 -6.344831607004762 0.0 -0.0 0.0 -6.344831607004762" energy=-13.96412025 pbc="T T T"
Al       0.00000000       0.00000000       0.00000000       0.00000000      -0.00000000      -0.00000000
Al       0.00000000       2.22484761       2.22484761       0.00000000      -0.00000000       0.00000000
Al       2.22484761       0.00000000       2.22484761      -0.00000000       0.00000000      -0.00000000
Al       2.22484761       2.22484761       0.00000000       0.00000000       0.00000000      -0.00000000
4
Lattice="3.74226874 0.0 0.0 0.0 3.74226874 0.0 0.0 0.0 3.74226874" Properties=species:S:1:pos:R:3:forces:R:3 virial="35.867544914476895 -0.0 -0.0 -0.0 35.867544914476895 0.0 -0.0 0.0 35.867544914476895" energy=-8.19564866 pbc="T T T"
Au       0.00000000       0.00000000       0.00000000       0.00000000      -0.00000000       0.00000000
Au       0.00000000       1.87113437       1.87113437      -0.00000000      -0.00000000      -0.00000000
Au       1.87113437       0.00000000       1.87113437      -0.00000000       0.00000000       0.00000000
Au       1.87113437       1.87113437       0.00000000      -0.00000000       0.00000000      -0.00000000
4
Lattice="3.82543027 0.0 0.0 0.0 3.82543027 0.0 0.0 0.0 3.82543027" Properties=species:S:1:pos:R:3:forces:R:3 virial="25.166539501897077 0.0 0.0 0.0 25.166539501897077 0.0 0.0 0.0 25.166539501897077" energy=-10.19786005 pbc="T T T"
Au       0.00000000       0.00000000       0.00000000       0.00000000       0.00000000      -0.00000000
Au       0.00000000       1.91271514       1.91271514      -0.00000000      -0.00000000       0.00000000
Au       1.91271514       0.00000000       1.91271514       0.00000000      -0.00000000       0.00000000
Au       1.91271514       1.91271514       0.00000000       0.00000000       0.00000000       0.00000000
4
Lattice="3.9085918 0.0 0.0 0.0 3.9085918 0.0 0.0 0.0 3.9085918" Properties=species:S:1:pos:R:3:forces:R:3 virial="16.53491241590829 -0.0 0.0 -0.0 16.53491241590829 0.0 0.0 0.0 16.53491241590829" energy=-11.53389922 pbc="T T T"
Au       0.00000000       0.00000000       0.00000000      -0.00000000      -0.00000000       0.00000000
Au       0.00000000       1.95429590       1.95429590       0.00000000       0.00000000       0.00000000
Au       1.95429590       0.00000000       1.95429590       0.00000000      -0.00000000       0.00000000
Au       1.95429590       1.95429590       0.00000000       0.00000000       0.00000000      -0.00000000
4
Lattice="3.99175333 0.0 0.0 0.0 3.99175333 0.0 0.0 0.0 3.99175333" Properties=species:S:1:pos:R:3:forces:R:3 virial="9.77329733522919 0.0 -0.0 0.0 9.77329733522919 0.0 -0.0 0.0 9.77329733522919" energy=-12.32633372 pbc="T T T"
Au       0.00000000       0.00000000       0.00000000       0.00000000      -0.00000000      -0.00000000
Au       0.00000000       1.99587666       1.99587666      -0.00000000      -0.00000000       0.00000000
Au       1.99587666       0.00000000       1.99587666       0.00000000       0.00000000      -0.00000000
Au       1.99587666       1.99587666       0.00000000       0.00000000      -0.00000000       0.00000000
4
Lattice="4.07491486 0.0 0.0 0.0 4.07491486 0.0 0.0 0.0 4.07491486" Properties=species:S:1:pos:R:3:forces:R:3 virial="4.2858764830639355 0.0 -0.0 0.0 4.2858764830639355 -0.0 -0.0 -0.0 4.2858764830639355" energy=-12.75531912 pbc="T T T"
Au       0.00000000       0.00000000       0.00000000      -0.00000000      -0.00000000      -0.00000000
Au       0.00000000       2.03745743       2.03745743       0.00000000       0.00000000       0.00000000
Au       2.03745743       0.00000000       2.03745743      -0.00000000       0.00000000       0.00000000
Au       2.03745743       2.03745743       0.00000000      -0.00000000      -0.00000000      -0.00000000
4
Lattice="4.15807638 0.0 0.0 0.0 4.15807638 0.0 0.0 0.0 4.15807638" Properties=species:S:1:pos:R:3:forces:R:3 virial="0.03226618861809464 0.0 0.0 0.0 0.03226618861809464 0.0 0.0 0.0 0.03226618861809464" energy=-12.88038155 pbc="T T T"
Au       0.00000000       0.00000000       0.00000000      -0.00000000       0.00000000       0.00000000
Au       0.00000000       2.07903819       2.07903819       0.00000000       0.00000000      -0.00000000
Au       2.07903819       0.00000000       2.07903819       0.00000000       0.00000000       0.00000000
Au       2.07903819       2.07903819       0.00000000       0.00000000      -0.00000000       0.00000000
4
Lattice="4.24123791 0.0 0.0 0.0 4.24123791 0.0 0.0 0.0 4.24123791" Properties=species:S:1:pos:R:3:forces:R:3 virial="-3.3112833573619826 0.0 -0.0 0.0 -3.3112833573619826 -0.0 -0.0 -0.0 -3.3112833573619826" energy=-12.77952193 pbc="T T T"
Au       0.00000000       0.00000000       0.00000000       0.00000000       0.00000000      -0.00000000
Au       0.00000000       2.12061895       2.12061895       0.00000000       0.00000000       0.00000000
Au       2.12061895       0.00000000       2.12061895      -0.00000000      -0.00000000       0.00000000
Au       2.12061895       2.12061895       0.00000000      -0.00000000      -0.00000000      -0.00000000
4
Lattice="4.32439944 0.0 0.0 0.0 4.32439944 0.0 0.0 0.0 4.32439944" Properties=species:S:1:pos:R:3:forces:R:3 virial="-5.863556590960477 0.0 -0.0 0.0 -5.863556590960477 0.0 -0.0 0.0 -5.863556590960477" energy=-12.50983686 pbc="T T T"
Au       0.00000000       0.00000000       0.00000000       0.00000000       0.00000000       0.00000000
Au       0.00000000       2.16219972       2.16219972      -0.00000000       0.00000000       0.00000000
Au       2.16219972       0.00000000       2.16219972      -0.00000000       0.00000000       0.00000000
Au       2.16219972       2.16219972       0.00000000      -0.00000000      -0.00000000       0.00000000
4
Lattice="4.40756097 0.0 0.0 0.0 4.40756097 0.0 0.0 0.0 4.40756097" Properties=species:S:1:pos:R:3:forces:R:3 virial="-7.690690319843165 -0.0 0.0 -0.0 -7.690690319843165 -0.0 0.0 -0.0 -7.690690319843165" energy=-12.11932251 pbc="T T T"
Au       0.00000000       0.00000000       0.00000000      -0.00000000      -0.00000000       0.00000000
Au       0.00000000       2.20378048       2.20378048      -0.00000000      -0.00000000      -0.00000000
Au       2.20378048       0.00000000       2.20378048       0.00000000       0.00000000       0.00000000
Au       2.20378048       2.20378048       0.00000000       0.00000000       0.00000000      -0.00000000
4
Lattice="4.49072249 0.0 0.0 0.0 4.49072249 0.0 0.0 0.0 4.49072249" Properties=species:S:1:pos:R:3:forces:R:3 virial="-8.972671306566507 0.0 -0.0 0.0 -8.972671306566507 0.0 -0.0 0.0 -8.972671306566507" energy=-11.64509352 pbc="T T T"
Au       0.00000000       0.00000000       0.00000000       0.00000000       0.00000000      -0.00000000
Au       0.00000000       2.24536124       2.24536124      -0.00000000      -0.00000000      -0.00000000
Au       2.24536124       0.00000000       2.24536124       0.00000000       0.00000000       0.00000000
Au       2.24536124       2.24536124       0.00000000       0.00000000      -0.00000000      -0.00000000
4
Lattice="4.57388402 0.0 0.0 0.0 4.57388402 0.0 0.0 0.0 4.57388402" Properties=species:S:1:pos:R:3:forces:R:3 virial="-9.937091205733918 0.0 0.0 0.0 -9.937091205733918 0.0 0.0 0.0 -9.937091205733918" energy=-11.12335093 pbc="T T T"
Au       0.00000000       0.00000000       0.00000000      -0.00000000      -0.00000000       0.00000000
Au       0.00000000       2.28694201       2.28694201      -0.00000000      -0.00000000      -0.00000000
Au       2.28694201       0.00000000       2.28694201       0.00000000      -0.00000000      -0.00000000
Au       2.28694201       2.28694201       0.00000000       0.00000000       0.00000000       0.00000000
4
Lattice="3.26619222 0.0 0.0 0.0 3.26619222 0.0 0.0 0.0 3.26619222" Properties=species:S:1:pos:R:3:forces:R:3 virial="21.504121798120437 -0.0 0.0 -0.0 21.504121798120437 0.0 0.0 0.0 21.504121798120437" energy=-11.95406101 pbc="T T T"
Cu       0.00000000       0.00000000       0.00000000       0.00000000       0.00000000       0.00000000
Cu       0.00000000       1.63309611       1.63309611      -0.00000000      -0.00000000       0.00000000
Cu       1.63309611       0.00000000       1.63309611       0.00000000      -0.00000000      -0.00000000
Cu       1.63309611       1.63309611       0.00000000       0.00000000       0.00000000       0.00000000
4
Lattice="3.33877427 0.0 0.0 0.0 3.33877427 0.0 0.0 0.0 3.33877427" Properties=species:S:1:pos:R:3:forces:R:3 virial="15.480647687959525 -0.0 0.0 -0.0 15.480647687959525 0.0 0.0 0.0 15.480647687959525" energy=-13.16910978 pbc="T T T"
Cu       0.00000000       0.00000000       0.00000000       0.00000000      -0.00000000       0.00000000
Cu       0.00000000       1.66938714       1.66938714       0.00000000       0.00000000       0.00000000
Cu       1.66938714       0.00000000       1.66938714      -0.00000000      -0.00000000      -0.00000000
Cu       1.66938714       1.66938714       0.00000000      -0.00000000       0.00000000       0.00000000
4
Lattice="3.41135632 0.0 0.0 0.0 3.41135632 0.0 0.0 0.0 3.41135632" Properties=species:S:1:pos:R:3:forces:R:3 virial="10.48886884837365 -0.0 0.0 -0.0 10.48886884837365 -0.0 0.0 -0.0 10.48886884837365" energy=-14.00307192 pbc="T T T"
Cu       0.00000000       0.00000000       0.00000000      -0.00000000      -0.00000000       0.00000000
Cu       0.00000000       1.70567816       1.70567816       0.00000000       0.00000000      -0.00000000
Cu       1.70567816       0.00000000       1.70567816       0.00000000      -0.00000000      -0.00000000
Cu       1.70567816       1.70567816       0.00000000       0.00000000       0.00000000       0.00000000
4
Lattice="3.48393837 0.0 0.0 0.0 3.48393837 0.0 0.0 0.0 3.48393837" Properties=species:S:1:pos:R:3:forces:R:3 virial="6.373337844523126 0.0 -0.0 0.0 6.373337844523126 0.0 -0.0 0.0 6.373337844523126" energy=-14.53160017 pbc="T T T"
Cu       0.00000000       0.00000000       0.00000000      -0.00000000       0.00000000      -0.00000000
Cu       0.00000000       1.74196919       1.74196919       0.00000000       0.00000000       0.00000000
Cu       1.74196919       0.00000000       1.74196919      -0.00000000      -0.00000000       0.00000000
Cu       1.74196919       1.74196919       0.00000000      -0.00000000      -0.00000000       0.00000000
4
Lattice="3.55652042 0.0 0.0 0.0 3.55652042 0.0 0.0 0.0 3.55652042" Properties=species:S:1:pos:R:3:forces:R:3 virial="3.042111288247967 -0.0 -0.0 -0.0 3.042111288247967 -0.0 -0.0 -0.0 3.042111288247967" energy=-14.82638941 pbc="T T T"
Cu       0.00000000       0.00000000       0.00000000       0.00000000      -0.00000000      -0.00000000
Cu       0.00000000       1.77826021       1.77826021       0.00000000       0.00000000       0.00000000
Cu       1.77826021       0.00000000       1.77826021      -0.00000000       0.00000000       0.00000000
Cu       1.77826021       1.77826021       0.00000000      -0.00000000       0.00000000      -0.00000000
4
Lattice="3.62910247 0.0 0.0 0.0 3.62910247 0.0 0.0 0.0 3.62910247" Properties=species:S:1:pos:R:3:forces:R:3 virial="0.27089222111268946 0.0 -0.0 0.0 0.27089222111268946 0.0 -0.0 0.0 0.27089222111268946" energy=-14.92120359 pbc="T T T"
Cu       0.00000000       0.00000000       0.00000000      -0.00000000       0.00000000       0.00000000
Cu       0.00000000       1.81455123       1.81455123      -0.00000000       0.00000000       0.00000000
Cu       1.81455123       0.00000000       1.81455123       0.00000000       0.00000000       0.00000000
Cu       1.81455123       1.81455123       0.00000000       0.00000000       0.00000000       0.00000000
4
Lattice="3.70168452 0.0 0.0 0.0 3.70168452 0.0 0.0 0.0 3.70168452" Properties=species:S:1:pos:R:3:forces:R:3 virial="-2.0911214160766534 0.0 0.0 0.0 -2.0911214160766534 -0.0 0.0 -0.0 -2.0911214160766534" energy=-14.86307492 pbc="T T T"
Cu       0.00000000       0.00000000       0.00000000      -0.00000000       0.00000000       0.00000000
Cu       0.00000000       1.85084226       1.85084226       0.00000000       0.00000000      -0.00000000
Cu       1.85084226       0.00000000       1.85084226       0.00000000      -0.00000000      -0.00000000
Cu       1.85084226       1.85084226       0.00000000       0.00000000      -0.00000000       0.00000000
4
Lattice="3.77426657 0.0 0.0 0.0 3.77426657 0.0 0.0 0.0 3.77426657" Properties=species:S:1:pos:R:3:forces:R:3 virial="-3.9689981373142564 0.0 -0.0 0.0 -3.9689981373142564 -0.0 -0.0 -0.0 -3.9689981373142564" energy=-14.68505525 pbc="T T T"
Cu       0.00000000       0.00000000       0.00000000      -0.00000000      -0.00000000       0.00000000
Cu       0.00000000       1.88713328       1.88713328       0.00000000       0.00000000       0.00000000
Cu       1.88713328       0.00000000       1.88713328      -0.00000000       0.00000000       0.00000000
Cu       1.88713328       1.88713328       0.00000000      -0.00000000      -0.00000000       0.00000000
4
Lattice="3.84684861 0.0 0.0 0.0 3.84684861 0.0 0.0 0.0 3.84684861" Properties=species:S:1:pos:R:3:forces:R:3 virial="-5.460736274732719 -0.0 -0.0 -0.0 -5.460736274732719 0.0 -0.0 0.0 -5.460736274732719" energy=-14.41480411 pbc="T T T"
Cu       0.00000000       0.00000000       0.00000000      -0.00000000      -0.00000000       0.00000000
Cu       0.00000000       1.92342430       1.92342430      -0.00000000       0.00000000       0.00000000
Cu       1.92342430       0.00000000       1.92342430       0.00000000       0.00000000       0.00000000
Cu       1.92342430       1.92342430       0.00000000       0.00000000      -0.00000000      -0.00000000
4
Lattice="3.91943066 0.0 0.0 0.0 3.91943066 0.0 0.0 0.0 3.91943066" Properties=species:S:1:pos:R:3:forces:R:3 virial="-6.635098032673934 0.0 0.0 0.0 -6.635098032673934 0.0 0.0 0.0 -6.635098032673934" energy=-14.07496178 pbc="T T T"
Cu       0.00000000       0.00000000       0.00000000      -0.00000000       0.00000000       0.00000000
Cu       0.00000000       1.95971533       1.95971533       0.00000000       0.00000000      -0.00000000
Cu       1.95971533       0.00000000       1.95971533       0.00000000      -0.00000000       0.00000000
Cu       1.95971533       1.95971533       0.00000000       0.00000000      -0.00000000       0.00000000
4
Lattice="3.99201271 0.0 0.0 0.0 3.99201271 0.0 0.0 0.0 3.99201271" Properties=species:S:1:pos:R:3:forces:R:3 virial="-7.539400654147505 0.0 -0.0 0.0 -7.539400654147505 0.0 -0.0 0.0 -7.539400654147505" energy=-13.6914073 pbc="T T T"
Cu       0.00000000       0.00000000       0.00000000       0.00000000      -0.00000000      -0.00000000
Cu       0.00000000       1.99600636       1.99600636      -0.00000000      -0.00000000       0.00000000
Cu       1.99600636       0.00000000       1.99600636       0.00000000       0.00000000       0.00000000
Cu       1.99600636       1.99600636       0.00000000       0.00000000       0.00000000      -0.00000000
4
Lattice="3.15972329 0.0 0.0 0.0 3.15972329 0.0 0.0 0.0 3.15972329" Properties=species:S:1:pos:R:3:forces:R:3 virial="26.87758877757573 0.0 -0.0 0.0 26.87758877757573 -0.0 -0.0 -0.0 26.87758877757573" energy=-17.98202063 pbc="T T T"
Ni       0.00000000       0.00000000       0.00000000      -0.00000000       0.00000000       0.00000000
Ni       0.00000000       1.57986165       1.57986165      -0.00000000      -0.00000000      -0.00000000
Ni       1.57986165       0.00000000       1.57986165       0.00000000       0.00000000      -0.00000000
Ni       1.57986165       1.57986165       0.00000000       0.00000000      -0.00000000       0.00000000
4
Lattice="3.22993936 0.0 0.0 0.0 3.22993936 0.0 0.0 0.0 3.22993936" Properties=species:S:1:pos:R:3:forces:R:3 virial="19.331010949775422 -0.0 0.0 -0.0 19.331010949775422 0.0 0.0 0.0 19.331010949775422" energy=-19.49970769 pbc="T T T"
Ni       0.00000000       0.00000000       0.00000000       0.00000000       0.00000000      -0.00000000
Ni       0.00000000       1.61496968       1.61496968       0.00000000       0.00000000       0.00000000
Ni       1.61496968       0.00000000       1.61496968       0.00000000       0.00000000       0.00000000